
     Program PWSCF v.7.0 starts on 13May2022 at 15:18:27 

     This program is part of the open-source Quantum ESPRESSO suite
     for quantum simulation of materials; please cite
         "P. Giannozzi et al., J. Phys.:Condens. Matter 21 395502 (2009);
         "P. Giannozzi et al., J. Phys.:Condens. Matter 29 465901 (2017);
         "P. Giannozzi et al., J. Chem. Phys. 152 154105 (2020);
          URL http://www.quantum-espresso.org", 
     in publications or presentations arising from this work. More details at
     http://www.quantum-espresso.org/quote

     Parallel version (MPI & OpenMP), running on      60 processor cores
     Number of MPI processes:                60
     Threads/MPI process:                     1

     MPI processes distributed on     3 nodes
     17796 MiB available memory on the printing compute node when the environment starts
 
     Reading input from bands.in

     Current dimensions of program PWSCF are:
     Max number of different atomic species (ntypx) = 10
     Max number of k-points (npk) =  40000
     Max angular momentum in pseudopotentials (lmaxx) =  4

     Atomic positions and unit cell read from directory:
     ./temp/Pt.save/
 
 
     K-points division:     npool     =      15
     R & G space division:  proc/nbgrp/npool/nimage =       4
     Subspace diagonalization in iterative solution of the eigenvalue problem:
     a serial algorithm will be used

 
     Parallelization info
     --------------------
     sticks:   dense  smooth     PW     G-vecs:    dense   smooth      PW
     Min         112     112     37                 1593     1593     284
     Max         113     113     38                 1594     1594     285
     Sum         451     451    151                 6375     6375    1139
 
     Using Slab Decomposition
 


     bravais-lattice index     =            2
     lattice parameter (alat)  =       7.3926  a.u.
     unit-cell volume          =     101.0024 (a.u.)^3
     number of atoms/cell      =            1
     number of atomic types    =            1
     number of electrons       =        10.00
     number of Kohn-Sham states=           24
     kinetic-energy cutoff     =      60.0000  Ry
     charge density cutoff     =     240.0000  Ry
     Exchange-correlation= PBESOL
                           (   1   4  10   8   0   0   0)
     Non magnetic calculation with spin-orbit


     celldm(1)=   7.392600  celldm(2)=   0.000000  celldm(3)=   0.000000
     celldm(4)=   0.000000  celldm(5)=   0.000000  celldm(6)=   0.000000

     crystal axes: (cart. coord. in units of alat)
               a(1) = (  -0.500000   0.000000   0.500000 )  
               a(2) = (   0.000000   0.500000   0.500000 )  
               a(3) = (  -0.500000   0.500000   0.000000 )  

     reciprocal axes: (cart. coord. in units 2 pi/alat)
               b(1) = ( -1.000000 -1.000000  1.000000 )  
               b(2) = (  1.000000  1.000000  1.000000 )  
               b(3) = ( -1.000000  1.000000 -1.000000 )  


     PseudoPot. # 1 for Pt read from file:
     ./Pt.rel-pbesol-n-nc.UPF
     MD5 check sum: 1ad8c16a3f6cfbc15730206407dd53f7
     Pseudo is Norm-conserving + core correction, Zval = 10.0
     Generated using "atomic" code by A. Dal Corso  v.5.0.99 svn rev. 10869
     Using radial grid of 1277 points,  4 beta functions with: 
                l(1) =   1
                l(2) =   1
                l(3) =   2
                l(4) =   2

     atomic species   valence    mass     pseudopotential
        Pt            10.00     1.00000     Pt( 1.00)

     48 Sym. Ops., with inversion, found


                                    s                        frac. trans.

      isym =  1     identity                                     

 cryst.   s( 1) = (     1          0          0      )
                  (     0          1          0      )
                  (     0          0          1      )

 cart.    s( 1) = (  1.0000000  0.0000000  0.0000000 )
                  (  0.0000000  1.0000000  0.0000000 )
                  (  0.0000000  0.0000000  1.0000000 )


      isym =  2     180 deg rotation - cart. axis [0,0,1]        

 cryst.   s( 2) = (     0          1         -1      )
                  (     1          0         -1      )
                  (     0          0         -1      )

 cart.    s( 2) = ( -1.0000000  0.0000000  0.0000000 )
                  (  0.0000000 -1.0000000  0.0000000 )
                  (  0.0000000  0.0000000  1.0000000 )


      isym =  3     180 deg rotation - cart. axis [0,1,0]        

 cryst.   s( 3) = (    -1          0          0      )
                  (    -1          0          1      )
                  (    -1          1          0      )

 cart.    s( 3) = ( -1.0000000  0.0000000  0.0000000 )
                  (  0.0000000  1.0000000  0.0000000 )
                  (  0.0000000  0.0000000 -1.0000000 )


      isym =  4     180 deg rotation - cart. axis [1,0,0]        

 cryst.   s( 4) = (     0         -1          1      )
                  (     0         -1          0      )
                  (     1         -1          0      )

 cart.    s( 4) = (  1.0000000  0.0000000  0.0000000 )
                  (  0.0000000 -1.0000000  0.0000000 )
                  (  0.0000000  0.0000000 -1.0000000 )


      isym =  5     180 deg rotation - cart. axis [1,1,0]        

 cryst.   s( 5) = (     0         -1          0      )
                  (    -1          0          0      )
                  (     0          0         -1      )

 cart.    s( 5) = (  0.0000000  1.0000000  0.0000000 )
                  (  1.0000000  0.0000000  0.0000000 )
                  (  0.0000000  0.0000000 -1.0000000 )


      isym =  6     180 deg rotation - cart. axis [1,-1,0]       

 cryst.   s( 6) = (    -1          0          1      )
                  (     0         -1          1      )
                  (     0          0          1      )

 cart.    s( 6) = (  0.0000000 -1.0000000  0.0000000 )
                  ( -1.0000000  0.0000000  0.0000000 )
                  (  0.0000000  0.0000000 -1.0000000 )


      isym =  7      90 deg rotation - cart. axis [0,0,-1]       

 cryst.   s( 7) = (     0          1          0      )
                  (     0          1         -1      )
                  (    -1          1          0      )

 cart.    s( 7) = (  0.0000000  1.0000000  0.0000000 )
                  ( -1.0000000  0.0000000  0.0000000 )
                  (  0.0000000  0.0000000  1.0000000 )


      isym =  8      90 deg rotation - cart. axis [0,0,1]        

 cryst.   s( 8) = (     1          0         -1      )
                  (     1          0          0      )
                  (     1         -1          0      )

 cart.    s( 8) = (  0.0000000 -1.0000000  0.0000000 )
                  (  1.0000000  0.0000000  0.0000000 )
                  (  0.0000000  0.0000000  1.0000000 )


      isym =  9     180 deg rotation - cart. axis [1,0,1]        

 cryst.   s( 9) = (    -1          0          0      )
                  (     0          0         -1      )
                  (     0         -1          0      )

 cart.    s( 9) = (  0.0000000  0.0000000  1.0000000 )
                  (  0.0000000 -1.0000000  0.0000000 )
                  (  1.0000000  0.0000000  0.0000000 )


      isym = 10     180 deg rotation - cart. axis [-1,0,1]       

 cryst.   s(10) = (     1          0          0      )
                  (     1         -1          0      )
                  (     1          0         -1      )

 cart.    s(10) = (  0.0000000  0.0000000 -1.0000000 )
                  (  0.0000000 -1.0000000  0.0000000 )
                  ( -1.0000000  0.0000000  0.0000000 )


      isym = 11      90 deg rotation - cart. axis [0,1,0]        

 cryst.   s(11) = (     0          1         -1      )
                  (    -1          1          0      )
                  (     0          1          0      )

 cart.    s(11) = (  0.0000000  0.0000000  1.0000000 )
                  (  0.0000000  1.0000000  0.0000000 )
                  ( -1.0000000  0.0000000  0.0000000 )


      isym = 12      90 deg rotation - cart. axis [0,-1,0]       

 cryst.   s(12) = (     0         -1          1      )
                  (     0          0          1      )
                  (    -1          0          1      )

 cart.    s(12) = (  0.0000000  0.0000000 -1.0000000 )
                  (  0.0000000  1.0000000  0.0000000 )
                  (  1.0000000  0.0000000  0.0000000 )


      isym = 13     180 deg rotation - cart. axis [0,1,1]        

 cryst.   s(13) = (    -1          1          0      )
                  (     0          1          0      )
                  (     0          1         -1      )

 cart.    s(13) = ( -1.0000000  0.0000000  0.0000000 )
                  (  0.0000000  0.0000000  1.0000000 )
                  (  0.0000000  1.0000000  0.0000000 )


      isym = 14     180 deg rotation - cart. axis [0,1,-1]       

 cryst.   s(14) = (     0          0         -1      )
                  (     0         -1          0      )
                  (    -1          0          0      )

 cart.    s(14) = ( -1.0000000  0.0000000  0.0000000 )
                  (  0.0000000  0.0000000 -1.0000000 )
                  (  0.0000000 -1.0000000  0.0000000 )


      isym = 15      90 deg rotation - cart. axis [-1,0,0]       

 cryst.   s(15) = (     0          0          1      )
                  (    -1          0          1      )
                  (     0         -1          1      )

 cart.    s(15) = (  1.0000000  0.0000000  0.0000000 )
                  (  0.0000000  0.0000000  1.0000000 )
                  (  0.0000000 -1.0000000  0.0000000 )


      isym = 16      90 deg rotation - cart. axis [1,0,0]        

 cryst.   s(16) = (     1         -1          0      )
                  (     1          0         -1      )
                  (     1          0          0      )

 cart.    s(16) = (  1.0000000  0.0000000  0.0000000 )
                  (  0.0000000  0.0000000 -1.0000000 )
                  (  0.0000000  1.0000000  0.0000000 )


      isym = 17     120 deg rotation - cart. axis [-1,-1,-1]     

 cryst.   s(17) = (    -1          0          1      )
                  (    -1          1          0      )
                  (    -1          0          0      )

 cart.    s(17) = (  0.0000000  1.0000000  0.0000000 )
                  (  0.0000000  0.0000000  1.0000000 )
                  (  1.0000000  0.0000000  0.0000000 )


      isym = 18     120 deg rotation - cart. axis [-1,1,1]       

 cryst.   s(18) = (     0          1          0      )
                  (     0          0          1      )
                  (     1          0          0      )

 cart.    s(18) = (  0.0000000 -1.0000000  0.0000000 )
                  (  0.0000000  0.0000000  1.0000000 )
                  ( -1.0000000  0.0000000  0.0000000 )


      isym = 19     120 deg rotation - cart. axis [1,1,-1]       

 cryst.   s(19) = (     1          0         -1      )
                  (     0          0         -1      )
                  (     0          1         -1      )

 cart.    s(19) = (  0.0000000  1.0000000  0.0000000 )
                  (  0.0000000  0.0000000 -1.0000000 )
                  ( -1.0000000  0.0000000  0.0000000 )


      isym = 20     120 deg rotation - cart. axis [1,-1,1]       

 cryst.   s(20) = (     0         -1          0      )
                  (     1         -1          0      )
                  (     0         -1          1      )

 cart.    s(20) = (  0.0000000 -1.0000000  0.0000000 )
                  (  0.0000000  0.0000000 -1.0000000 )
                  (  1.0000000  0.0000000  0.0000000 )


      isym = 21     120 deg rotation - cart. axis [1,1,1]        

 cryst.   s(21) = (     0          0         -1      )
                  (     0          1         -1      )
                  (     1          0         -1      )

 cart.    s(21) = (  0.0000000  0.0000000  1.0000000 )
                  (  1.0000000  0.0000000  0.0000000 )
                  (  0.0000000  1.0000000  0.0000000 )


      isym = 22     120 deg rotation - cart. axis [-1,1,-1]      

 cryst.   s(22) = (    -1          1          0      )
                  (    -1          0          0      )
                  (    -1          0          1      )

 cart.    s(22) = (  0.0000000  0.0000000  1.0000000 )
                  ( -1.0000000  0.0000000  0.0000000 )
                  (  0.0000000 -1.0000000  0.0000000 )


      isym = 23     120 deg rotation - cart. axis [1,-1,-1]      

 cryst.   s(23) = (     0          0          1      )
                  (     1          0          0      )
                  (     0          1          0      )

 cart.    s(23) = (  0.0000000  0.0000000 -1.0000000 )
                  ( -1.0000000  0.0000000  0.0000000 )
                  (  0.0000000  1.0000000  0.0000000 )


      isym = 24     120 deg rotation - cart. axis [-1,-1,1]      

 cryst.   s(24) = (     1         -1          0      )
                  (     0         -1          1      )
                  (     0         -1          0      )

 cart.    s(24) = (  0.0000000  0.0000000 -1.0000000 )
                  (  1.0000000  0.0000000  0.0000000 )
                  (  0.0000000 -1.0000000  0.0000000 )


      isym = 25     inversion                                    

 cryst.   s(25) = (    -1          0          0      )
                  (     0         -1          0      )
                  (     0          0         -1      )

 cart.    s(25) = ( -1.0000000  0.0000000  0.0000000 )
                  (  0.0000000 -1.0000000  0.0000000 )
                  (  0.0000000  0.0000000 -1.0000000 )


      isym = 26     inv. 180 deg rotation - cart. axis [0,0,1]   

 cryst.   s(26) = (     0         -1          1      )
                  (    -1          0          1      )
                  (     0          0          1      )

 cart.    s(26) = (  1.0000000  0.0000000  0.0000000 )
                  (  0.0000000  1.0000000  0.0000000 )
                  (  0.0000000  0.0000000 -1.0000000 )


      isym = 27     inv. 180 deg rotation - cart. axis [0,1,0]   

 cryst.   s(27) = (     1          0          0      )
                  (     1          0         -1      )
                  (     1         -1          0      )

 cart.    s(27) = (  1.0000000  0.0000000  0.0000000 )
                  (  0.0000000 -1.0000000  0.0000000 )
                  (  0.0000000  0.0000000  1.0000000 )


      isym = 28     inv. 180 deg rotation - cart. axis [1,0,0]   

 cryst.   s(28) = (     0          1         -1      )
                  (     0          1          0      )
                  (    -1          1          0      )

 cart.    s(28) = ( -1.0000000  0.0000000  0.0000000 )
                  (  0.0000000  1.0000000  0.0000000 )
                  (  0.0000000  0.0000000  1.0000000 )


      isym = 29     inv. 180 deg rotation - cart. axis [1,1,0]   

 cryst.   s(29) = (     0          1          0      )
                  (     1          0          0      )
                  (     0          0          1      )

 cart.    s(29) = (  0.0000000 -1.0000000  0.0000000 )
                  ( -1.0000000  0.0000000  0.0000000 )
                  (  0.0000000  0.0000000  1.0000000 )


      isym = 30     inv. 180 deg rotation - cart. axis [1,-1,0]  

 cryst.   s(30) = (     1          0         -1      )
                  (     0          1         -1      )
                  (     0          0         -1      )

 cart.    s(30) = (  0.0000000  1.0000000  0.0000000 )
                  (  1.0000000  0.0000000  0.0000000 )
                  (  0.0000000  0.0000000  1.0000000 )


      isym = 31     inv.  90 deg rotation - cart. axis [0,0,-1]  

 cryst.   s(31) = (     0         -1          0      )
                  (     0         -1          1      )
                  (     1         -1          0      )

 cart.    s(31) = (  0.0000000 -1.0000000  0.0000000 )
                  (  1.0000000  0.0000000  0.0000000 )
                  (  0.0000000  0.0000000 -1.0000000 )


      isym = 32     inv.  90 deg rotation - cart. axis [0,0,1]   

 cryst.   s(32) = (    -1          0          1      )
                  (    -1          0          0      )
                  (    -1          1          0      )

 cart.    s(32) = (  0.0000000  1.0000000  0.0000000 )
                  ( -1.0000000  0.0000000  0.0000000 )
                  (  0.0000000  0.0000000 -1.0000000 )


      isym = 33     inv. 180 deg rotation - cart. axis [1,0,1]   

 cryst.   s(33) = (     1          0          0      )
                  (     0          0          1      )
                  (     0          1          0      )

 cart.    s(33) = (  0.0000000  0.0000000 -1.0000000 )
                  (  0.0000000  1.0000000  0.0000000 )
                  ( -1.0000000  0.0000000  0.0000000 )


      isym = 34     inv. 180 deg rotation - cart. axis [-1,0,1]  

 cryst.   s(34) = (    -1          0          0      )
                  (    -1          1          0      )
                  (    -1          0          1      )

 cart.    s(34) = (  0.0000000  0.0000000  1.0000000 )
                  (  0.0000000  1.0000000  0.0000000 )
                  (  1.0000000  0.0000000  0.0000000 )


      isym = 35     inv.  90 deg rotation - cart. axis [0,1,0]   

 cryst.   s(35) = (     0         -1          1      )
                  (     1         -1          0      )
                  (     0         -1          0      )

 cart.    s(35) = (  0.0000000  0.0000000 -1.0000000 )
                  (  0.0000000 -1.0000000  0.0000000 )
                  (  1.0000000  0.0000000  0.0000000 )


      isym = 36     inv.  90 deg rotation - cart. axis [0,-1,0]  

 cryst.   s(36) = (     0          1         -1      )
                  (     0          0         -1      )
                  (     1          0         -1      )

 cart.    s(36) = (  0.0000000  0.0000000  1.0000000 )
                  (  0.0000000 -1.0000000  0.0000000 )
                  ( -1.0000000  0.0000000  0.0000000 )


      isym = 37     inv. 180 deg rotation - cart. axis [0,1,1]   

 cryst.   s(37) = (     1         -1          0      )
                  (     0         -1          0      )
                  (     0         -1          1      )

 cart.    s(37) = (  1.0000000  0.0000000  0.0000000 )
                  (  0.0000000  0.0000000 -1.0000000 )
                  (  0.0000000 -1.0000000  0.0000000 )


      isym = 38     inv. 180 deg rotation - cart. axis [0,1,-1]  

 cryst.   s(38) = (     0          0          1      )
                  (     0          1          0      )
                  (     1          0          0      )

 cart.    s(38) = (  1.0000000  0.0000000  0.0000000 )
                  (  0.0000000  0.0000000  1.0000000 )
                  (  0.0000000  1.0000000  0.0000000 )


      isym = 39     inv.  90 deg rotation - cart. axis [-1,0,0]  

 cryst.   s(39) = (     0          0         -1      )
                  (     1          0         -1      )
                  (     0          1         -1      )

 cart.    s(39) = ( -1.0000000  0.0000000  0.0000000 )
                  (  0.0000000  0.0000000 -1.0000000 )
                  (  0.0000000  1.0000000  0.0000000 )


      isym = 40     inv.  90 deg rotation - cart. axis [1,0,0]   

 cryst.   s(40) = (    -1          1          0      )
                  (    -1          0          1      )
                  (    -1          0          0      )

 cart.    s(40) = ( -1.0000000  0.0000000  0.0000000 )
                  (  0.0000000  0.0000000  1.0000000 )
                  (  0.0000000 -1.0000000  0.0000000 )


      isym = 41     inv. 120 deg rotation - cart. axis [-1,-1,-1]

 cryst.   s(41) = (     1          0         -1      )
                  (     1         -1          0      )
                  (     1          0          0      )

 cart.    s(41) = (  0.0000000 -1.0000000  0.0000000 )
                  (  0.0000000  0.0000000 -1.0000000 )
                  ( -1.0000000  0.0000000  0.0000000 )


      isym = 42     inv. 120 deg rotation - cart. axis [-1,1,1]  

 cryst.   s(42) = (     0         -1          0      )
                  (     0          0         -1      )
                  (    -1          0          0      )

 cart.    s(42) = (  0.0000000  1.0000000  0.0000000 )
                  (  0.0000000  0.0000000 -1.0000000 )
                  (  1.0000000  0.0000000  0.0000000 )


      isym = 43     inv. 120 deg rotation - cart. axis [1,1,-1]  

 cryst.   s(43) = (    -1          0          1      )
                  (     0          0          1      )
                  (     0         -1          1      )

 cart.    s(43) = (  0.0000000 -1.0000000  0.0000000 )
                  (  0.0000000  0.0000000  1.0000000 )
                  (  1.0000000  0.0000000  0.0000000 )


      isym = 44     inv. 120 deg rotation - cart. axis [1,-1,1]  

 cryst.   s(44) = (     0          1          0      )
                  (    -1          1          0      )
                  (     0          1         -1      )

 cart.    s(44) = (  0.0000000  1.0000000  0.0000000 )
                  (  0.0000000  0.0000000  1.0000000 )
                  ( -1.0000000  0.0000000  0.0000000 )


      isym = 45     inv. 120 deg rotation - cart. axis [1,1,1]   

 cryst.   s(45) = (     0          0          1      )
                  (     0         -1          1      )
                  (    -1          0          1      )

 cart.    s(45) = (  0.0000000  0.0000000 -1.0000000 )
                  ( -1.0000000  0.0000000  0.0000000 )
                  (  0.0000000 -1.0000000  0.0000000 )


      isym = 46     inv. 120 deg rotation - cart. axis [-1,1,-1] 

 cryst.   s(46) = (     1         -1          0      )
                  (     1          0          0      )
                  (     1          0         -1      )

 cart.    s(46) = (  0.0000000  0.0000000 -1.0000000 )
                  (  1.0000000  0.0000000  0.0000000 )
                  (  0.0000000  1.0000000  0.0000000 )


      isym = 47     inv. 120 deg rotation - cart. axis [1,-1,-1] 

 cryst.   s(47) = (     0          0         -1      )
                  (    -1          0          0      )
                  (     0         -1          0      )

 cart.    s(47) = (  0.0000000  0.0000000  1.0000000 )
                  (  1.0000000  0.0000000  0.0000000 )
                  (  0.0000000 -1.0000000  0.0000000 )


      isym = 48     inv. 120 deg rotation - cart. axis [-1,-1,1] 

 cryst.   s(48) = (    -1          1          0      )
                  (     0          1         -1      )
                  (     0          1          0      )

 cart.    s(48) = (  0.0000000  0.0000000  1.0000000 )
                  ( -1.0000000  0.0000000  0.0000000 )
                  (  0.0000000  1.0000000  0.0000000 )


     double point group O_h (m-3m) 
     there are 16 classes and  6 irreducible representations
     the character table:

       E     -E    8C3   -8C3   3C2  6C4   -6C4   6C2' i     -i    8S6   -8S6 
                               -3C2              -6C2'                        
G_6+   2.00 -2.00  1.00 -1.00  0.00  1.41 -1.41  0.00  2.00 -2.00  1.00 -1.00
G_7+   2.00 -2.00  1.00 -1.00  0.00 -1.41  1.41  0.00  2.00 -2.00  1.00 -1.00
G_8+   4.00 -4.00 -1.00  1.00  0.00  0.00  0.00  0.00  4.00 -4.00 -1.00  1.00
G_6-   2.00 -2.00  1.00 -1.00  0.00  1.41 -1.41  0.00 -2.00  2.00 -1.00  1.00
G_7-   2.00 -2.00  1.00 -1.00  0.00 -1.41  1.41  0.00 -2.00  2.00 -1.00  1.00
G_8-   4.00 -4.00 -1.00  1.00  0.00  0.00  0.00  0.00 -4.00  4.00  1.00 -1.00

        3s_h 6S4   -6S4   6s_d
       -3s_h             -6s_d
G_6+   0.00  1.41 -1.41  0.00
G_7+   0.00 -1.41  1.41  0.00
G_8+   0.00  0.00  0.00  0.00
G_6-   0.00 -1.41  1.41  0.00
G_7-   0.00  1.41 -1.41  0.00
G_8-   0.00  0.00  0.00  0.00

     the symmetry operations in each class and the name of the first element:

     E             1
          identity                                               
     -E           -1
          identity E                                             
     8C3          17   19   20   18   24   21   22   23
          120 deg rotation - cart. axis [-1,-1,-1]               
     -8C3        -17  -19  -20  -18  -24  -21  -22  -23
          120 deg rotation - cart. axis [-1,-1,-1] E             
      3C2 -3C2     2   -2    4   -4    3   -3
          180 deg rotation - cart. axis [0,0,1]                  
     6C4           7    8   15   16   12   11
           90 deg rotation - cart. axis [0,0,-1]                 
     -6C4         -7   -8  -15  -16  -12  -11
           90 deg rotation - cart. axis [0,0,-1] E               
      6C2'-6C2'    5   -5   -6    6   14  -13  -14   13   10   -9  -10    9
          180 deg rotation - cart. axis [1,1,0]                  
     i            25
          inversion                                              
     -i          -25
          inversion E                                            
     8S6          41   43   44   42   48   45   46   47
          inv. 120 deg rotation - cart. axis [-1,-1,-1]          
     -8S6        -41  -43  -44  -42  -48  -45  -46  -47
          inv. 120 deg rotation - cart. axis [-1,-1,-1] E        
      3s_h-3s_h   26  -26   28  -28   27  -27
          inv. 180 deg rotation - cart. axis [0,0,1]             
     6S4          31   32   39   40   36   35
          inv.  90 deg rotation - cart. axis [0,0,-1]            
     -6S4        -31  -32  -39  -40  -36  -35
          inv.  90 deg rotation - cart. axis [0,0,-1] E          
      6s_d-6s_d   29  -29  -30   30   38  -37  -38   37   34  -33  -34   33
          inv. 180 deg rotation - cart. axis [1,1,0]             

   Cartesian axes

     site n.     atom                  positions (alat units)
         1           Pt  tau(   1) = (   0.0000000   0.0000000   0.0000000  )

   Crystallographic axes

     site n.     atom                  positions (cryst. coord.)
         1           Pt  tau(   1) = (  0.0000000  0.0000000  0.0000000  )

     number of k points=   178  Gaussian smearing, width (Ry)=  0.0300
                       cart. coord. in units 2pi/alat
        k(    1) = (   0.0000000   1.0000000   0.5000000), wk =   0.0056180
        k(    2) = (  -0.0166660   0.9833340   0.5000000), wk =   0.0056180
        k(    3) = (  -0.0333340   0.9666660   0.5000000), wk =   0.0056180
        k(    4) = (  -0.0500000   0.9500000   0.5000000), wk =   0.0056180
        k(    5) = (  -0.0666660   0.9333340   0.5000000), wk =   0.0056180
        k(    6) = (  -0.0833340   0.9166660   0.5000000), wk =   0.0056180
        k(    7) = (  -0.1000000   0.9000000   0.5000000), wk =   0.0056180
        k(    8) = (  -0.1166660   0.8833340   0.5000000), wk =   0.0056180
        k(    9) = (  -0.1333340   0.8666660   0.5000000), wk =   0.0056180
        k(   10) = (  -0.1500000   0.8500000   0.5000000), wk =   0.0056180
        k(   11) = (  -0.1666660   0.8333340   0.5000000), wk =   0.0056180
        k(   12) = (  -0.1833340   0.8166660   0.5000000), wk =   0.0056180
        k(   13) = (  -0.2000000   0.8000000   0.5000000), wk =   0.0056180
        k(   14) = (  -0.2166660   0.7833340   0.5000000), wk =   0.0056180
        k(   15) = (  -0.2333340   0.7666660   0.5000000), wk =   0.0056180
        k(   16) = (  -0.2500000   0.7500000   0.5000000), wk =   0.0056180
        k(   17) = (  -0.2666660   0.7333340   0.5000000), wk =   0.0056180
        k(   18) = (  -0.2833340   0.7166660   0.5000000), wk =   0.0056180
        k(   19) = (  -0.3000000   0.7000000   0.5000000), wk =   0.0056180
        k(   20) = (  -0.3166660   0.6833340   0.5000000), wk =   0.0056180
        k(   21) = (  -0.3333340   0.6666660   0.5000000), wk =   0.0056180
        k(   22) = (  -0.3500000   0.6500000   0.5000000), wk =   0.0056180
        k(   23) = (  -0.3666660   0.6333340   0.5000000), wk =   0.0056180
        k(   24) = (  -0.3833340   0.6166660   0.5000000), wk =   0.0056180
        k(   25) = (  -0.4000000   0.6000000   0.5000000), wk =   0.0056180
        k(   26) = (  -0.4166660   0.5833340   0.5000000), wk =   0.0056180
        k(   27) = (  -0.4333340   0.5666660   0.5000000), wk =   0.0056180
        k(   28) = (  -0.4500000   0.5500000   0.5000000), wk =   0.0056180
        k(   29) = (  -0.4666660   0.5333340   0.5000000), wk =   0.0056180
        k(   30) = (  -0.4833340   0.5166660   0.5000000), wk =   0.0056180
        k(   31) = (  -0.5000000   0.5000000   0.5000000), wk =   0.0056180
        k(   32) = (  -0.4864860   0.4864860   0.4864860), wk =   0.0056180
        k(   33) = (  -0.4729730   0.4729730   0.4729730), wk =   0.0056180
        k(   34) = (  -0.4594590   0.4594590   0.4594590), wk =   0.0056180
        k(   35) = (  -0.4459460   0.4459460   0.4459460), wk =   0.0056180
        k(   36) = (  -0.4324320   0.4324320   0.4324320), wk =   0.0056180
        k(   37) = (  -0.4189190   0.4189190   0.4189190), wk =   0.0056180
        k(   38) = (  -0.4054050   0.4054050   0.4054050), wk =   0.0056180
        k(   39) = (  -0.3918920   0.3918920   0.3918920), wk =   0.0056180
        k(   40) = (  -0.3783780   0.3783780   0.3783780), wk =   0.0056180
        k(   41) = (  -0.3648650   0.3648650   0.3648650), wk =   0.0056180
        k(   42) = (  -0.3513510   0.3513510   0.3513510), wk =   0.0056180
        k(   43) = (  -0.3378380   0.3378380   0.3378380), wk =   0.0056180
        k(   44) = (  -0.3243240   0.3243240   0.3243240), wk =   0.0056180
        k(   45) = (  -0.3108110   0.3108110   0.3108110), wk =   0.0056180
        k(   46) = (  -0.2972970   0.2972970   0.2972970), wk =   0.0056180
        k(   47) = (  -0.2837840   0.2837840   0.2837840), wk =   0.0056180
        k(   48) = (  -0.2702700   0.2702700   0.2702700), wk =   0.0056180
        k(   49) = (  -0.2567570   0.2567570   0.2567570), wk =   0.0056180
        k(   50) = (  -0.2432430   0.2432430   0.2432430), wk =   0.0056180
        k(   51) = (  -0.2297300   0.2297300   0.2297300), wk =   0.0056180
        k(   52) = (  -0.2162160   0.2162160   0.2162160), wk =   0.0056180
        k(   53) = (  -0.2027030   0.2027030   0.2027030), wk =   0.0056180
        k(   54) = (  -0.1891890   0.1891890   0.1891890), wk =   0.0056180
        k(   55) = (  -0.1756760   0.1756760   0.1756760), wk =   0.0056180
        k(   56) = (  -0.1621620   0.1621620   0.1621620), wk =   0.0056180
        k(   57) = (  -0.1486490   0.1486490   0.1486490), wk =   0.0056180
        k(   58) = (  -0.1351350   0.1351350   0.1351350), wk =   0.0056180
        k(   59) = (  -0.1216220   0.1216220   0.1216220), wk =   0.0056180
        k(   60) = (  -0.1081080   0.1081080   0.1081080), wk =   0.0056180
        k(   61) = (  -0.0945950   0.0945950   0.0945950), wk =   0.0056180
        k(   62) = (  -0.0810810   0.0810810   0.0810810), wk =   0.0056180
        k(   63) = (  -0.0675680   0.0675680   0.0675680), wk =   0.0056180
        k(   64) = (  -0.0540540   0.0540540   0.0540540), wk =   0.0056180
        k(   65) = (  -0.0405410   0.0405410   0.0405410), wk =   0.0056180
        k(   66) = (  -0.0270270   0.0270270   0.0270270), wk =   0.0056180
        k(   67) = (  -0.0135140   0.0135140   0.0135140), wk =   0.0056180
        k(   68) = (   0.0000000   0.0000000   0.0000000), wk =   0.0056180
        k(   69) = (  -0.0238100   0.0000000   0.0000000), wk =   0.0056180
        k(   70) = (  -0.0476200   0.0000000   0.0000000), wk =   0.0056180
        k(   71) = (  -0.0714280   0.0000000   0.0000000), wk =   0.0056180
        k(   72) = (  -0.0952380   0.0000000   0.0000000), wk =   0.0056180
        k(   73) = (  -0.1190480   0.0000000   0.0000000), wk =   0.0056180
        k(   74) = (  -0.1428580   0.0000000   0.0000000), wk =   0.0056180
        k(   75) = (  -0.1666660   0.0000000   0.0000000), wk =   0.0056180
        k(   76) = (  -0.1904760   0.0000000   0.0000000), wk =   0.0056180
        k(   77) = (  -0.2142860   0.0000000   0.0000000), wk =   0.0056180
        k(   78) = (  -0.2380960   0.0000000   0.0000000), wk =   0.0056180
        k(   79) = (  -0.2619040   0.0000000   0.0000000), wk =   0.0056180
        k(   80) = (  -0.2857140   0.0000000   0.0000000), wk =   0.0056180
        k(   81) = (  -0.3095240   0.0000000   0.0000000), wk =   0.0056180
        k(   82) = (  -0.3333340   0.0000000   0.0000000), wk =   0.0056180
        k(   83) = (  -0.3571420   0.0000000   0.0000000), wk =   0.0056180
        k(   84) = (  -0.3809520   0.0000000   0.0000000), wk =   0.0056180
        k(   85) = (  -0.4047620   0.0000000   0.0000000), wk =   0.0056180
        k(   86) = (  -0.4285720   0.0000000   0.0000000), wk =   0.0056180
        k(   87) = (  -0.4523800   0.0000000   0.0000000), wk =   0.0056180
        k(   88) = (  -0.4761900   0.0000000   0.0000000), wk =   0.0056180
        k(   89) = (  -0.5000000   0.0000000   0.0000000), wk =   0.0056180
        k(   90) = (  -0.5238100   0.0000000   0.0000000), wk =   0.0056180
        k(   91) = (  -0.5476200   0.0000000   0.0000000), wk =   0.0056180
        k(   92) = (  -0.5714280   0.0000000   0.0000000), wk =   0.0056180
        k(   93) = (  -0.5952380   0.0000000   0.0000000), wk =   0.0056180
        k(   94) = (  -0.6190480   0.0000000   0.0000000), wk =   0.0056180
        k(   95) = (  -0.6428580   0.0000000   0.0000000), wk =   0.0056180
        k(   96) = (  -0.6666660   0.0000000   0.0000000), wk =   0.0056180
        k(   97) = (  -0.6904760   0.0000000   0.0000000), wk =   0.0056180
        k(   98) = (  -0.7142860   0.0000000   0.0000000), wk =   0.0056180
        k(   99) = (  -0.7380960   0.0000000   0.0000000), wk =   0.0056180
        k(  100) = (  -0.7619040   0.0000000   0.0000000), wk =   0.0056180
        k(  101) = (  -0.7857140   0.0000000   0.0000000), wk =   0.0056180
        k(  102) = (  -0.8095240   0.0000000   0.0000000), wk =   0.0056180
        k(  103) = (  -0.8333340   0.0000000   0.0000000), wk =   0.0056180
        k(  104) = (  -0.8571420   0.0000000   0.0000000), wk =   0.0056180
        k(  105) = (  -0.8809520   0.0000000   0.0000000), wk =   0.0056180
        k(  106) = (  -0.9047620   0.0000000   0.0000000), wk =   0.0056180
        k(  107) = (  -0.9285720   0.0000000   0.0000000), wk =   0.0056180
        k(  108) = (  -0.9523800   0.0000000   0.0000000), wk =   0.0056180
        k(  109) = (  -0.9761900   0.0000000   0.0000000), wk =   0.0056180
        k(  110) = (  -1.0000000   0.0000000   0.0000000), wk =   0.0056180
        k(  111) = (  -1.0000000   0.0238100   0.0000000), wk =   0.0056180
        k(  112) = (  -1.0000000   0.0476200   0.0000000), wk =   0.0056180
        k(  113) = (  -1.0000000   0.0714280   0.0000000), wk =   0.0056180
        k(  114) = (  -1.0000000   0.0952380   0.0000000), wk =   0.0056180
        k(  115) = (  -1.0000000   0.1190480   0.0000000), wk =   0.0056180
        k(  116) = (  -1.0000000   0.1428580   0.0000000), wk =   0.0056180
        k(  117) = (  -1.0000000   0.1666660   0.0000000), wk =   0.0056180
        k(  118) = (  -1.0000000   0.1904760   0.0000000), wk =   0.0056180
        k(  119) = (  -1.0000000   0.2142860   0.0000000), wk =   0.0056180
        k(  120) = (  -1.0000000   0.2380960   0.0000000), wk =   0.0056180
        k(  121) = (  -1.0000000   0.2619040   0.0000000), wk =   0.0056180
        k(  122) = (  -1.0000000   0.2857140   0.0000000), wk =   0.0056180
        k(  123) = (  -1.0000000   0.3095240   0.0000000), wk =   0.0056180
        k(  124) = (  -1.0000000   0.3333340   0.0000000), wk =   0.0056180
        k(  125) = (  -1.0000000   0.3571420   0.0000000), wk =   0.0056180
        k(  126) = (  -1.0000000   0.3809520   0.0000000), wk =   0.0056180
        k(  127) = (  -1.0000000   0.4047620   0.0000000), wk =   0.0056180
        k(  128) = (  -1.0000000   0.4285720   0.0000000), wk =   0.0056180
        k(  129) = (  -1.0000000   0.4523800   0.0000000), wk =   0.0056180
        k(  130) = (  -1.0000000   0.4761900   0.0000000), wk =   0.0056180
        k(  131) = (  -1.0000000   0.5000000   0.0000000), wk =   0.0056180
        k(  132) = (  -0.9787240   0.4893620   0.0000000), wk =   0.0056180
        k(  133) = (  -0.9574460   0.4787240   0.0000000), wk =   0.0056180
        k(  134) = (  -0.9361700   0.4680860   0.0000000), wk =   0.0056180
        k(  135) = (  -0.9148940   0.4574460   0.0000000), wk =   0.0056180
        k(  136) = (  -0.8936180   0.4468080   0.0000000), wk =   0.0056180
        k(  137) = (  -0.8723400   0.4361700   0.0000000), wk =   0.0056180
        k(  138) = (  -0.8510640   0.4255320   0.0000000), wk =   0.0056180
        k(  139) = (  -0.8297870   0.4148930   0.0000010), wk =   0.0056180
        k(  140) = (  -0.8085100   0.4042560   0.0000000), wk =   0.0056180
        k(  141) = (  -0.7872340   0.3936180   0.0000000), wk =   0.0056180
        k(  142) = (  -0.7659580   0.3829780   0.0000000), wk =   0.0056180
        k(  143) = (  -0.7446810   0.3723410  -0.0000010), wk =   0.0056180
        k(  144) = (  -0.7234040   0.3617020   0.0000000), wk =   0.0056180
        k(  145) = (  -0.7021280   0.3510640   0.0000000), wk =   0.0056180
        k(  146) = (  -0.6808510   0.3404250   0.0000010), wk =   0.0056180
        k(  147) = (  -0.6595740   0.3297880   0.0000000), wk =   0.0056180
        k(  148) = (  -0.6382980   0.3191480   0.0000000), wk =   0.0056180
        k(  149) = (  -0.6170220   0.3085100   0.0000000), wk =   0.0056180
        k(  150) = (  -0.5957450   0.2978730  -0.0000010), wk =   0.0056180
        k(  151) = (  -0.5744680   0.2872340   0.0000000), wk =   0.0056180
        k(  152) = (  -0.5531920   0.2765960   0.0000000), wk =   0.0056180
        k(  153) = (  -0.5319140   0.2659580   0.0000000), wk =   0.0056180
        k(  154) = (  -0.5106380   0.2553200   0.0000000), wk =   0.0056180
        k(  155) = (  -0.4893620   0.2446800   0.0000000), wk =   0.0056180
        k(  156) = (  -0.4680860   0.2340420   0.0000000), wk =   0.0056180
        k(  157) = (  -0.4468080   0.2234040   0.0000000), wk =   0.0056180
        k(  158) = (  -0.4255320   0.2127660   0.0000000), wk =   0.0056180
        k(  159) = (  -0.4042550   0.2021270   0.0000010), wk =   0.0056180
        k(  160) = (  -0.3829780   0.1914900   0.0000000), wk =   0.0056180
        k(  161) = (  -0.3617020   0.1808520   0.0000000), wk =   0.0056180
        k(  162) = (  -0.3404260   0.1702120   0.0000000), wk =   0.0056180
        k(  163) = (  -0.3191490   0.1595750  -0.0000010), wk =   0.0056180
        k(  164) = (  -0.2978720   0.1489360   0.0000000), wk =   0.0056180
        k(  165) = (  -0.2765960   0.1382980   0.0000000), wk =   0.0056180
        k(  166) = (  -0.2553190   0.1276590   0.0000010), wk =   0.0056180
        k(  167) = (  -0.2340420   0.1170220   0.0000000), wk =   0.0056180
        k(  168) = (  -0.2127660   0.1063820   0.0000000), wk =   0.0056180
        k(  169) = (  -0.1914900   0.0957440   0.0000000), wk =   0.0056180
        k(  170) = (  -0.1702130   0.0851070  -0.0000010), wk =   0.0056180
        k(  171) = (  -0.1489360   0.0744680   0.0000000), wk =   0.0056180
        k(  172) = (  -0.1276600   0.0638300   0.0000000), wk =   0.0056180
        k(  173) = (  -0.1063820   0.0531920   0.0000000), wk =   0.0056180
        k(  174) = (  -0.0851060   0.0425540   0.0000000), wk =   0.0056180
        k(  175) = (  -0.0638300   0.0319140   0.0000000), wk =   0.0056180
        k(  176) = (  -0.0425540   0.0212760   0.0000000), wk =   0.0056180
        k(  177) = (  -0.0212760   0.0106380   0.0000000), wk =   0.0056180
        k(  178) = (   0.0000000   0.0000000   0.0000000), wk =   0.0056180

                       cryst. coord.
        k(    1) = (   0.2500000   0.7500000   0.5000000), wk =   0.0056180
        k(    2) = (   0.2583330   0.7416670   0.5000000), wk =   0.0056180
        k(    3) = (   0.2666670   0.7333330   0.5000000), wk =   0.0056180
        k(    4) = (   0.2750000   0.7250000   0.5000000), wk =   0.0056180
        k(    5) = (   0.2833330   0.7166670   0.5000000), wk =   0.0056180
        k(    6) = (   0.2916670   0.7083330   0.5000000), wk =   0.0056180
        k(    7) = (   0.3000000   0.7000000   0.5000000), wk =   0.0056180
        k(    8) = (   0.3083330   0.6916670   0.5000000), wk =   0.0056180
        k(    9) = (   0.3166670   0.6833330   0.5000000), wk =   0.0056180
        k(   10) = (   0.3250000   0.6750000   0.5000000), wk =   0.0056180
        k(   11) = (   0.3333330   0.6666670   0.5000000), wk =   0.0056180
        k(   12) = (   0.3416670   0.6583330   0.5000000), wk =   0.0056180
        k(   13) = (   0.3500000   0.6500000   0.5000000), wk =   0.0056180
        k(   14) = (   0.3583330   0.6416670   0.5000000), wk =   0.0056180
        k(   15) = (   0.3666670   0.6333330   0.5000000), wk =   0.0056180
        k(   16) = (   0.3750000   0.6250000   0.5000000), wk =   0.0056180
        k(   17) = (   0.3833330   0.6166670   0.5000000), wk =   0.0056180
        k(   18) = (   0.3916670   0.6083330   0.5000000), wk =   0.0056180
        k(   19) = (   0.4000000   0.6000000   0.5000000), wk =   0.0056180
        k(   20) = (   0.4083330   0.5916670   0.5000000), wk =   0.0056180
        k(   21) = (   0.4166670   0.5833330   0.5000000), wk =   0.0056180
        k(   22) = (   0.4250000   0.5750000   0.5000000), wk =   0.0056180
        k(   23) = (   0.4333330   0.5666670   0.5000000), wk =   0.0056180
        k(   24) = (   0.4416670   0.5583330   0.5000000), wk =   0.0056180
        k(   25) = (   0.4500000   0.5500000   0.5000000), wk =   0.0056180
        k(   26) = (   0.4583330   0.5416670   0.5000000), wk =   0.0056180
        k(   27) = (   0.4666670   0.5333330   0.5000000), wk =   0.0056180
        k(   28) = (   0.4750000   0.5250000   0.5000000), wk =   0.0056180
        k(   29) = (   0.4833330   0.5166670   0.5000000), wk =   0.0056180
        k(   30) = (   0.4916670   0.5083330   0.5000000), wk =   0.0056180
        k(   31) = (   0.5000000   0.5000000   0.5000000), wk =   0.0056180
        k(   32) = (   0.4864860   0.4864860   0.4864860), wk =   0.0056180
        k(   33) = (   0.4729730   0.4729730   0.4729730), wk =   0.0056180
        k(   34) = (   0.4594590   0.4594590   0.4594590), wk =   0.0056180
        k(   35) = (   0.4459460   0.4459460   0.4459460), wk =   0.0056180
        k(   36) = (   0.4324320   0.4324320   0.4324320), wk =   0.0056180
        k(   37) = (   0.4189190   0.4189190   0.4189190), wk =   0.0056180
        k(   38) = (   0.4054050   0.4054050   0.4054050), wk =   0.0056180
        k(   39) = (   0.3918920   0.3918920   0.3918920), wk =   0.0056180
        k(   40) = (   0.3783780   0.3783780   0.3783780), wk =   0.0056180
        k(   41) = (   0.3648650   0.3648650   0.3648650), wk =   0.0056180
        k(   42) = (   0.3513510   0.3513510   0.3513510), wk =   0.0056180
        k(   43) = (   0.3378380   0.3378380   0.3378380), wk =   0.0056180
        k(   44) = (   0.3243240   0.3243240   0.3243240), wk =   0.0056180
        k(   45) = (   0.3108110   0.3108110   0.3108110), wk =   0.0056180
        k(   46) = (   0.2972970   0.2972970   0.2972970), wk =   0.0056180
        k(   47) = (   0.2837840   0.2837840   0.2837840), wk =   0.0056180
        k(   48) = (   0.2702700   0.2702700   0.2702700), wk =   0.0056180
        k(   49) = (   0.2567570   0.2567570   0.2567570), wk =   0.0056180
        k(   50) = (   0.2432430   0.2432430   0.2432430), wk =   0.0056180
        k(   51) = (   0.2297300   0.2297300   0.2297300), wk =   0.0056180
        k(   52) = (   0.2162160   0.2162160   0.2162160), wk =   0.0056180
        k(   53) = (   0.2027030   0.2027030   0.2027030), wk =   0.0056180
        k(   54) = (   0.1891890   0.1891890   0.1891890), wk =   0.0056180
        k(   55) = (   0.1756760   0.1756760   0.1756760), wk =   0.0056180
        k(   56) = (   0.1621620   0.1621620   0.1621620), wk =   0.0056180
        k(   57) = (   0.1486490   0.1486490   0.1486490), wk =   0.0056180
        k(   58) = (   0.1351350   0.1351350   0.1351350), wk =   0.0056180
        k(   59) = (   0.1216220   0.1216220   0.1216220), wk =   0.0056180
        k(   60) = (   0.1081080   0.1081080   0.1081080), wk =   0.0056180
        k(   61) = (   0.0945950   0.0945950   0.0945950), wk =   0.0056180
        k(   62) = (   0.0810810   0.0810810   0.0810810), wk =   0.0056180
        k(   63) = (   0.0675680   0.0675680   0.0675680), wk =   0.0056180
        k(   64) = (   0.0540540   0.0540540   0.0540540), wk =   0.0056180
        k(   65) = (   0.0405410   0.0405410   0.0405410), wk =   0.0056180
        k(   66) = (   0.0270270   0.0270270   0.0270270), wk =   0.0056180
        k(   67) = (   0.0135140   0.0135140   0.0135140), wk =   0.0056180
        k(   68) = (   0.0000000   0.0000000   0.0000000), wk =   0.0056180
        k(   69) = (   0.0119050   0.0000000   0.0119050), wk =   0.0056180
        k(   70) = (   0.0238100   0.0000000   0.0238100), wk =   0.0056180
        k(   71) = (   0.0357140   0.0000000   0.0357140), wk =   0.0056180
        k(   72) = (   0.0476190   0.0000000   0.0476190), wk =   0.0056180
        k(   73) = (   0.0595240   0.0000000   0.0595240), wk =   0.0056180
        k(   74) = (   0.0714290   0.0000000   0.0714290), wk =   0.0056180
        k(   75) = (   0.0833330   0.0000000   0.0833330), wk =   0.0056180
        k(   76) = (   0.0952380   0.0000000   0.0952380), wk =   0.0056180
        k(   77) = (   0.1071430   0.0000000   0.1071430), wk =   0.0056180
        k(   78) = (   0.1190480   0.0000000   0.1190480), wk =   0.0056180
        k(   79) = (   0.1309520   0.0000000   0.1309520), wk =   0.0056180
        k(   80) = (   0.1428570   0.0000000   0.1428570), wk =   0.0056180
        k(   81) = (   0.1547620   0.0000000   0.1547620), wk =   0.0056180
        k(   82) = (   0.1666670   0.0000000   0.1666670), wk =   0.0056180
        k(   83) = (   0.1785710   0.0000000   0.1785710), wk =   0.0056180
        k(   84) = (   0.1904760   0.0000000   0.1904760), wk =   0.0056180
        k(   85) = (   0.2023810   0.0000000   0.2023810), wk =   0.0056180
        k(   86) = (   0.2142860   0.0000000   0.2142860), wk =   0.0056180
        k(   87) = (   0.2261900   0.0000000   0.2261900), wk =   0.0056180
        k(   88) = (   0.2380950   0.0000000   0.2380950), wk =   0.0056180
        k(   89) = (   0.2500000   0.0000000   0.2500000), wk =   0.0056180
        k(   90) = (   0.2619050   0.0000000   0.2619050), wk =   0.0056180
        k(   91) = (   0.2738100   0.0000000   0.2738100), wk =   0.0056180
        k(   92) = (   0.2857140   0.0000000   0.2857140), wk =   0.0056180
        k(   93) = (   0.2976190   0.0000000   0.2976190), wk =   0.0056180
        k(   94) = (   0.3095240   0.0000000   0.3095240), wk =   0.0056180
        k(   95) = (   0.3214290   0.0000000   0.3214290), wk =   0.0056180
        k(   96) = (   0.3333330   0.0000000   0.3333330), wk =   0.0056180
        k(   97) = (   0.3452380   0.0000000   0.3452380), wk =   0.0056180
        k(   98) = (   0.3571430   0.0000000   0.3571430), wk =   0.0056180
        k(   99) = (   0.3690480   0.0000000   0.3690480), wk =   0.0056180
        k(  100) = (   0.3809520   0.0000000   0.3809520), wk =   0.0056180
        k(  101) = (   0.3928570   0.0000000   0.3928570), wk =   0.0056180
        k(  102) = (   0.4047620   0.0000000   0.4047620), wk =   0.0056180
        k(  103) = (   0.4166670   0.0000000   0.4166670), wk =   0.0056180
        k(  104) = (   0.4285710   0.0000000   0.4285710), wk =   0.0056180
        k(  105) = (   0.4404760   0.0000000   0.4404760), wk =   0.0056180
        k(  106) = (   0.4523810   0.0000000   0.4523810), wk =   0.0056180
        k(  107) = (   0.4642860   0.0000000   0.4642860), wk =   0.0056180
        k(  108) = (   0.4761900   0.0000000   0.4761900), wk =   0.0056180
        k(  109) = (   0.4880950   0.0000000   0.4880950), wk =   0.0056180
        k(  110) = (   0.5000000   0.0000000   0.5000000), wk =   0.0056180
        k(  111) = (   0.5000000   0.0119050   0.5119050), wk =   0.0056180
        k(  112) = (   0.5000000   0.0238100   0.5238100), wk =   0.0056180
        k(  113) = (   0.5000000   0.0357140   0.5357140), wk =   0.0056180
        k(  114) = (   0.5000000   0.0476190   0.5476190), wk =   0.0056180
        k(  115) = (   0.5000000   0.0595240   0.5595240), wk =   0.0056180
        k(  116) = (   0.5000000   0.0714290   0.5714290), wk =   0.0056180
        k(  117) = (   0.5000000   0.0833330   0.5833330), wk =   0.0056180
        k(  118) = (   0.5000000   0.0952380   0.5952380), wk =   0.0056180
        k(  119) = (   0.5000000   0.1071430   0.6071430), wk =   0.0056180
        k(  120) = (   0.5000000   0.1190480   0.6190480), wk =   0.0056180
        k(  121) = (   0.5000000   0.1309520   0.6309520), wk =   0.0056180
        k(  122) = (   0.5000000   0.1428570   0.6428570), wk =   0.0056180
        k(  123) = (   0.5000000   0.1547620   0.6547620), wk =   0.0056180
        k(  124) = (   0.5000000   0.1666670   0.6666670), wk =   0.0056180
        k(  125) = (   0.5000000   0.1785710   0.6785710), wk =   0.0056180
        k(  126) = (   0.5000000   0.1904760   0.6904760), wk =   0.0056180
        k(  127) = (   0.5000000   0.2023810   0.7023810), wk =   0.0056180
        k(  128) = (   0.5000000   0.2142860   0.7142860), wk =   0.0056180
        k(  129) = (   0.5000000   0.2261900   0.7261900), wk =   0.0056180
        k(  130) = (   0.5000000   0.2380950   0.7380950), wk =   0.0056180
        k(  131) = (   0.5000000   0.2500000   0.7500000), wk =   0.0056180
        k(  132) = (   0.4893620   0.2446810   0.7340430), wk =   0.0056180
        k(  133) = (   0.4787230   0.2393620   0.7180850), wk =   0.0056180
        k(  134) = (   0.4680850   0.2340430   0.7021280), wk =   0.0056180
        k(  135) = (   0.4574470   0.2287230   0.6861700), wk =   0.0056180
        k(  136) = (   0.4468090   0.2234040   0.6702130), wk =   0.0056180
        k(  137) = (   0.4361700   0.2180850   0.6542550), wk =   0.0056180
        k(  138) = (   0.4255320   0.2127660   0.6382980), wk =   0.0056180
        k(  139) = (   0.4148940   0.2074470   0.6223400), wk =   0.0056180
        k(  140) = (   0.4042550   0.2021280   0.6063830), wk =   0.0056180
        k(  141) = (   0.3936170   0.1968090   0.5904260), wk =   0.0056180
        k(  142) = (   0.3829790   0.1914890   0.5744680), wk =   0.0056180
        k(  143) = (   0.3723400   0.1861700   0.5585110), wk =   0.0056180
        k(  144) = (   0.3617020   0.1808510   0.5425530), wk =   0.0056180
        k(  145) = (   0.3510640   0.1755320   0.5265960), wk =   0.0056180
        k(  146) = (   0.3404260   0.1702130   0.5106380), wk =   0.0056180
        k(  147) = (   0.3297870   0.1648940   0.4946810), wk =   0.0056180
        k(  148) = (   0.3191490   0.1595740   0.4787230), wk =   0.0056180
        k(  149) = (   0.3085110   0.1542550   0.4627660), wk =   0.0056180
        k(  150) = (   0.2978720   0.1489360   0.4468090), wk =   0.0056180
        k(  151) = (   0.2872340   0.1436170   0.4308510), wk =   0.0056180
        k(  152) = (   0.2765960   0.1382980   0.4148940), wk =   0.0056180
        k(  153) = (   0.2659570   0.1329790   0.3989360), wk =   0.0056180
        k(  154) = (   0.2553190   0.1276600   0.3829790), wk =   0.0056180
        k(  155) = (   0.2446810   0.1223400   0.3670210), wk =   0.0056180
        k(  156) = (   0.2340430   0.1170210   0.3510640), wk =   0.0056180
        k(  157) = (   0.2234040   0.1117020   0.3351060), wk =   0.0056180
        k(  158) = (   0.2127660   0.1063830   0.3191490), wk =   0.0056180
        k(  159) = (   0.2021280   0.1010640   0.3031910), wk =   0.0056180
        k(  160) = (   0.1914890   0.0957450   0.2872340), wk =   0.0056180
        k(  161) = (   0.1808510   0.0904260   0.2712770), wk =   0.0056180
        k(  162) = (   0.1702130   0.0851060   0.2553190), wk =   0.0056180
        k(  163) = (   0.1595740   0.0797870   0.2393620), wk =   0.0056180
        k(  164) = (   0.1489360   0.0744680   0.2234040), wk =   0.0056180
        k(  165) = (   0.1382980   0.0691490   0.2074470), wk =   0.0056180
        k(  166) = (   0.1276600   0.0638300   0.1914890), wk =   0.0056180
        k(  167) = (   0.1170210   0.0585110   0.1755320), wk =   0.0056180
        k(  168) = (   0.1063830   0.0531910   0.1595740), wk =   0.0056180
        k(  169) = (   0.0957450   0.0478720   0.1436170), wk =   0.0056180
        k(  170) = (   0.0851060   0.0425530   0.1276600), wk =   0.0056180
        k(  171) = (   0.0744680   0.0372340   0.1117020), wk =   0.0056180
        k(  172) = (   0.0638300   0.0319150   0.0957450), wk =   0.0056180
        k(  173) = (   0.0531910   0.0265960   0.0797870), wk =   0.0056180
        k(  174) = (   0.0425530   0.0212770   0.0638300), wk =   0.0056180
        k(  175) = (   0.0319150   0.0159570   0.0478720), wk =   0.0056180
        k(  176) = (   0.0212770   0.0106380   0.0319150), wk =   0.0056180
        k(  177) = (   0.0106380   0.0053190   0.0159570), wk =   0.0056180
        k(  178) = (   0.0000000   0.0000000   0.0000000), wk =   0.0056180

     Dense  grid:     6375 G-vectors     FFT dimensions: (  25,  25,  25)

     Dynamical RAM for                 wfc:       0.15 MB

     Dynamical RAM for     wfc (w. buffer):       1.89 MB

     Dynamical RAM for           str. fact:       0.02 MB

     Dynamical RAM for           local pot:       0.00 MB

     Dynamical RAM for          nlocal pot:       0.05 MB

     Dynamical RAM for                qrad:       0.59 MB

     Dynamical RAM for          rho,v,vnew:       0.69 MB

     Dynamical RAM for           G-vectors:       0.10 MB

     Dynamical RAM for          h,s,v(r/c):       0.11 MB

     Dynamical RAM for          <psi|beta>:       0.01 MB

     Dynamical RAM for                 psi:       0.29 MB

     Dynamical RAM for                hpsi:       0.29 MB

     Dynamical RAM for      wfcinit/wfcrot:       0.23 MB

     Estimated static dynamical RAM per process >       3.66 MB

     Estimated max dynamical RAM per process >       4.36 MB

     Estimated total dynamical RAM >     261.54 MB

     The potential is recalculated from file :
     ./temp/Pt.save/charge-density

     Starting wfcs are   18 randomized atomic wfcs +    6 random wfcs

     Band Structure Calculation
     Davidson diagonalization with overlap

     Computing kpt #:     1  of    12 on this pool
     total cpu time spent up to now is        0.6 secs

     Computing kpt #:     2  of    12 on this pool
     total cpu time spent up to now is        0.7 secs

     Computing kpt #:     3  of    12 on this pool
     total cpu time spent up to now is        0.9 secs

     Computing kpt #:     4  of    12 on this pool
     total cpu time spent up to now is        1.1 secs

     Computing kpt #:     5  of    12 on this pool
     total cpu time spent up to now is        1.3 secs

     Computing kpt #:     6  of    12 on this pool
     total cpu time spent up to now is        1.5 secs

     Computing kpt #:     7  of    12 on this pool
     total cpu time spent up to now is        1.7 secs

     Computing kpt #:     8  of    12 on this pool
     total cpu time spent up to now is        1.8 secs

     Computing kpt #:     9  of    12 on this pool
     total cpu time spent up to now is        2.0 secs

     Computing kpt #:    10  of    12 on this pool
     total cpu time spent up to now is        2.1 secs

     Computing kpt #:    11  of    12 on this pool
     total cpu time spent up to now is        2.3 secs

     Computing kpt #:    12  of    12 on this pool
     total cpu time spent up to now is        2.4 secs

     ethr =  1.00E-12,  avg # of iterations = 39.9

     total cpu time spent up to now is        2.5 secs

     End of band structure calculation

          k = 0.0000 1.0000 0.5000 (   772 PWs)   bands (ev):

    12.1773  12.1773  13.1530  13.1530  13.4106  13.4106  16.1362  16.1362
    18.6049  18.6049  25.4238  25.4238  25.8096  25.8096  27.2198  27.2198
    30.6771  30.6771  45.1672  45.1672  45.7527  45.7527  45.9457  45.9457

          k =-0.0167 0.9833 0.5000 (   778 PWs)   bands (ev):

    12.1814  12.1814  13.1505  13.1505  13.4086  13.4086  16.1383  16.1383
    18.5936  18.5936  25.3005  25.3005  25.8986  25.8986  27.2457  27.2457
    30.7145  30.7145  44.9061  44.9061  45.8266  45.8266  46.1389  46.1389

          k =-0.0333 0.9667 0.5000 (   780 PWs)   bands (ev):

    12.1940  12.1940  13.1408  13.1408  13.4048  13.4048  16.1440  16.1440
    18.5604  18.5604  25.0809  25.0809  25.9964  25.9964  27.3462  27.3462
    30.8229  30.8229  44.4611  44.4611  45.8633  45.8633  46.5657  46.5657

          k =-0.0500 0.9500 0.5000 (   780 PWs)   bands (ev):

    12.2147  12.2147  13.1186  13.1186  13.4058  13.4058  16.1517  16.1517
    18.5073  18.5073  24.8567  24.8567  25.9873  25.9873  27.5539  27.5539
    30.9919  30.9919  43.9870  43.9870  45.9003  45.9003  47.0335  47.0335

          k =-0.0667 0.9333 0.5000 (   780 PWs)   bands (ev):

    12.2434  12.2434  13.0784  13.0784  13.4181  13.4181  16.1589  16.1589
    18.4376  18.4376  24.6487  24.6487  25.8681  25.8681  27.8608  27.8608
    31.2092  31.2092  43.5063  43.5063  45.9484  45.9484  47.5091  47.5091

          k =-0.0833 0.9167 0.5000 (   778 PWs)   bands (ev):

    12.2795  12.2795  13.0187  13.0187  13.4451  13.4451  16.1622  16.1622
    18.3558  18.3558  24.4639  24.4639  25.6718  25.6718  28.2355  28.2355
    31.4628  31.4628  43.0257  43.0257  46.0088  46.0088  47.9842  47.9842

          k =-0.1000 0.9000 0.5000 (   778 PWs)   bands (ev):

    12.3224  12.3224  12.9420  12.9420  13.4864  13.4864  16.1578  16.1578
    18.2673  18.2673  24.3047  24.3047  25.4265  25.4265  28.6532  28.6532
    31.7426  31.7426  42.5483  42.5483  46.0818  46.0818  48.4550  48.4550

          k =-0.1167 0.8833 0.5000 (   786 PWs)   bands (ev):

    12.3704  12.3704  12.8526  12.8526  13.5404  13.5404  16.1415  16.1415
    18.1785  18.1785  24.1711  24.1711  25.1495  25.1495  29.0990  29.0990
    32.0409  32.0409  42.0765  42.0765  46.1673  46.1673  48.9179  48.9179

          k =-0.1333 0.8667 0.5000 (   786 PWs)   bands (ev):

    12.4200  12.4200  12.7565  12.7565  13.6059  13.6059  16.1095  16.1095
    18.0957  18.0957  24.0621  24.0621  24.8516  24.8516  29.5639  29.5639
    32.3514  32.3514  41.6123  41.6123  46.2647  46.2647  49.3689  49.3689

          k =-0.1500 0.8500 0.5000 (   786 PWs)   bands (ev):

    12.4568  12.4568  12.6700  12.6700  13.6820  13.6820  16.0593  16.0593
    18.0242  18.0242  23.9758  23.9758  24.5396  24.5396  30.0414  30.0414
    32.6693  32.6693  41.1580  41.1580  46.3735  46.3735  49.8003  49.8003

          k =-0.1667 0.8333 0.5000 (   794 PWs)   bands (ev):

    12.4307  12.4307  12.6443  12.6443  13.7679  13.7679  15.9899  15.9899
    17.9677  17.9677  23.9097  23.9097  24.2184  24.2184  30.5270  30.5270
    32.9904  32.9904  40.7159  40.7159  46.4931  46.4931  50.1977  50.1977

          k =-0.1833 0.8167 0.5000 (   790 PWs)   bands (ev):

    12.3327  12.3327  12.6895  12.6895  13.8632  13.8632  15.9028  15.9028
    17.9279  17.9279  23.8497  23.8497  23.9026  23.9026  31.0166  31.0166
    33.3110  33.3110  40.2887  40.2887  46.6222  46.6222  50.5270  50.5270

          k =-0.2000 0.8000 0.5000 (   792 PWs)   bands (ev):

    12.2104  12.2104  12.7587  12.7587  13.9671  13.9671  15.8015  15.8015
    17.9040  17.9040  23.5527  23.5527  23.8357  23.8357  31.5067  31.5067
    33.6274  33.6274  39.8796  39.8796  46.7599  46.7599  50.7185  50.7185

          k =-0.2167 0.7833 0.5000 (   792 PWs)   bands (ev):

    12.0798  12.0798  12.8361  12.8361  14.0788  14.0788  15.6910  15.6910
    17.8940  17.8940  23.2180  23.2180  23.8176  23.8176  31.9937  31.9937
    33.9360  33.9360  39.4923  39.4923  46.9044  46.9044  50.7101  50.7101

          k =-0.2333 0.7667 0.5000 (   796 PWs)   bands (ev):

    11.9457  11.9457  12.9172  12.9172  14.1971  14.1971  15.5773  15.5773
    17.8951  17.8951  22.8812  22.8812  23.8119  23.8119  32.4738  32.4738
    34.2326  34.2326  39.1318  39.1318  47.0542  47.0542  50.5542  50.5542

          k =-0.2500 0.7500 0.5000 (   802 PWs)   bands (ev):

    11.8106  11.8106  12.9994  12.9994  14.3196  14.3196  15.4674  15.4674
    17.9044  17.9044  22.5440  22.5440  23.8161  23.8161  32.9426  32.9426
    34.5125  34.5125  38.8044  38.8044  47.2071  47.2071  50.3392  50.3392

          k =-0.2667 0.7333 0.5000 (   796 PWs)   bands (ev):

    11.6763  11.6763  13.0810  13.0810  14.4416  14.4416  15.3701  15.3701
    17.9194  17.9194  22.2074  22.2074  23.8284  23.8284  33.3942  33.3942
    34.7709  34.7709  38.5180  38.5180  47.3608  47.3608  50.1111  50.1111

          k =-0.2833 0.7167 0.5000 (   794 PWs)   bands (ev):

    11.5442  11.5442  13.1601  13.1601  14.5535  14.5535  15.2984  15.2984
    17.9379  17.9379  21.8721  21.8721  23.8469  23.8469  33.8195  33.8195
    35.0043  35.0043  38.2826  38.2826  47.5127  47.5127  49.8889  49.8889

          k =-0.3000 0.7000 0.5000 (   794 PWs)   bands (ev):

    11.4158  11.4158  13.2350  13.2350  14.6376  14.6376  15.2729  15.2729
    17.9582  17.9582  21.5389  21.5389  23.8701  23.8701  34.2027  34.2027
    35.2145  35.2145  38.1094  38.1094  47.6601  47.6601  49.6813  49.6813

          k =-0.3167 0.6833 0.5000 (   794 PWs)   bands (ev):

    11.2923  11.2923  13.3040  13.3040  14.6748  14.6748  15.3149  15.3149
    17.9790  17.9790  21.2085  21.2085  23.8966  23.8966  34.5150  34.5150
    35.4178  35.4178  38.0078  38.0078  47.8001  47.8001  49.4924  49.4924

          k =-0.3333 0.6667 0.5000 (   798 PWs)   bands (ev):

    11.1750  11.1750  13.3652  13.3652  14.6682  14.6682  15.4229  15.4229
    17.9992  17.9992  20.8816  20.8816  23.9251  23.9251  34.7190  34.7190
    35.6453  35.6453  37.9808  37.9808  47.9294  47.9294  49.3247  49.3247

          k =-0.3500 0.6500 0.5000 (   796 PWs)   bands (ev):

    11.0651  11.0651  13.4174  13.4174  14.6401  14.6401  15.5757  15.5757
    18.0179  18.0179  20.5589  20.5589  23.9545  23.9545  34.8033  34.8033
    35.9113  35.9113  38.0218  38.0218  48.0447  48.0447  49.1802  49.1802

          k =-0.3667 0.6333 0.5000 (   792 PWs)   bands (ev):

    10.9637  10.9637  13.4594  13.4594  14.6081  14.6081  15.7558  15.7558
    18.0343  18.0343  20.2415  20.2415  23.9836  23.9836  34.7976  34.7976
    36.1963  36.1963  38.1165  38.1165  48.1420  48.1420  49.0606  49.0606

          k =-0.3833 0.6167 0.5000 (   792 PWs)   bands (ev):

    10.8717  10.8717  13.4909  13.4909  14.5809  14.5809  15.9540  15.9540
    18.0475  18.0475  19.9305  19.9305  24.0115  24.0115  34.7400  34.7400
    36.4749  36.4749  38.2473  38.2473  48.2171  48.2171  48.9678  48.9678

          k =-0.4000 0.6000 0.5000 (   794 PWs)   bands (ev):

    10.7901  10.7901  13.5126  13.5126  14.5613  14.5613  16.1650  16.1650
    18.0563  18.0563  19.6277  19.6277  24.0375  24.0375  34.6580  34.6580
    36.7308  36.7308  38.3977  38.3977  48.2660  48.2660  48.9028  48.9028

          k =-0.4167 0.5833 0.5000 (   792 PWs)   bands (ev):

    10.7197  10.7197  13.5258  13.5258  14.5496  14.5496  16.3859  16.3859
    18.0588  18.0588  19.3361  19.3361  24.0606  24.0606  34.5696  34.5696
    36.9546  36.9546  38.5530  38.5530  48.2878  48.2878  48.8633  48.8633

          k =-0.4333 0.5667 0.5000 (   792 PWs)   bands (ev):

    10.6611  10.6611  13.5327  13.5327  14.5441  14.5441  16.6136  16.6136
    18.0511  18.0511  19.0612  19.0612  24.0804  24.0804  34.4863  34.4863
    37.1411  37.1411  38.7008  38.7008  48.2866  48.2866  48.8407  48.8407

          k =-0.4500 0.5500 0.5000 (   792 PWs)   bands (ev):

    10.6150  10.6150  13.5353  13.5353  14.5428  14.5428  16.8446  16.8446
    18.0251  18.0251  18.8141  18.8141  24.0963  24.0963  34.4154  34.4154
    37.2873  37.2873  38.8295  38.8295  48.2709  48.2709  48.8222  48.8222

          k =-0.4667 0.5333 0.5000 (   792 PWs)   bands (ev):

    10.5817  10.5817  13.5356  13.5356  14.5435  14.5435  17.0716  17.0716
    17.9659  17.9659  18.6164  18.6164  24.1080  24.1080  34.3619  34.3619
    37.3922  37.3922  38.9295  38.9295  48.2500  48.2500  48.7987  48.7987

          k =-0.4833 0.5167 0.5000 (   792 PWs)   bands (ev):

    10.5616  10.5616  13.5352  13.5352  14.5447  14.5447  17.2751  17.2751
    17.8663  17.8663  18.4947  18.4947  24.1151  24.1151  34.3287  34.3287
    37.4552  37.4552  38.9929  38.9929  48.2327  48.2327  48.7744  48.7744

          k =-0.5000 0.5000 0.5000 (   796 PWs)   bands (ev):

    10.5549  10.5549  13.5349  13.5349  14.5452  14.5452  17.3782  17.3782
    17.7959  17.7959  18.4560  18.4560  24.1175  24.1175  34.3175  34.3175
    37.4761  37.4761  39.0146  39.0146  48.2259  48.2259  48.7639  48.7639

          k =-0.4865 0.4865 0.4865 (   793 PWs)   bands (ev):

    10.5551  10.5551  13.5366  13.5366  14.5475  14.5475  17.3316  17.3316
    17.8001  17.8001  18.4492  18.4492  24.1638  24.1638  34.3257  34.3257
    37.4915  37.4915  39.0299  39.0299  48.2114  48.2114  48.7376  48.7376

          k =-0.4730 0.4730 0.4730 (   793 PWs)   bands (ev):

    10.5554  10.5554  13.5416  13.5416  14.5544  14.5544  17.2048  17.2048
    17.8031  17.8031  18.4288  18.4288  24.2997  24.2997  34.3504  34.3504
    37.5373  37.5373  39.0756  39.0756  48.1682  48.1682  48.6559  48.6559

          k =-0.4595 0.4595 0.4595 (   793 PWs)   bands (ev):

    10.5556  10.5556  13.5499  13.5499  14.5659  14.5659  17.0188  17.0188
    17.7924  17.7924  18.3952  18.3952  24.5170  24.5170  34.3916  34.3916
    37.6131  37.6131  39.1511  39.1511  48.0970  48.0970  48.5099  48.5099

          k =-0.4459 0.4459 0.4459 (   793 PWs)   bands (ev):

    10.5553  10.5553  13.5614  13.5614  14.5817  14.5817  16.7899  16.7899
    17.7638  17.7638  18.3491  18.3491  24.8045  24.8045  34.4491  34.4491
    37.7178  37.7178  39.2556  39.2556  47.9993  47.9993  48.2899  48.2899

          k =-0.4324 0.4324 0.4324 (   799 PWs)   bands (ev):

    10.5538  10.5538  13.5759  13.5759  14.6018  14.6018  16.5308  16.5308
    17.7175  17.7175  18.2910  18.2910  25.1504  25.1504  34.5229  34.5229
    37.8501  37.8501  39.3876  39.3876  47.8771  47.8771  47.9989  47.9989

          k =-0.4189 0.4189 0.4189 (   796 PWs)   bands (ev):

    10.5501  10.5501  13.5932  13.5932  14.6259  14.6259  16.2520  16.2520
    17.6555  17.6555  18.2222  18.2222  25.5438  25.5438  34.6129  34.6129
    38.0083  38.0083  39.5456  39.5456  47.6523  47.6523  47.7327  47.7327

          k =-0.4054 0.4054 0.4054 (   796 PWs)   bands (ev):

    10.5431  10.5431  13.6130  13.6130  14.6536  14.6536  15.9628  15.9628
    17.5799  17.5799  18.1437  18.1437  25.9750  25.9750  34.7187  34.7187
    38.1903  38.1903  39.7275  39.7275  47.2664  47.2664  47.5691  47.5691

          k =-0.3919 0.3919 0.3919 (   796 PWs)   bands (ev):

    10.5314  10.5314  13.6351  13.6351  14.6843  14.6843  15.6713  15.6713
    17.4929  17.4929  18.0567  18.0567  26.4361  26.4361  34.8402  34.8402
    38.3934  38.3934  39.9306  39.9306  46.8546  46.8546  47.3898  47.3898

          k =-0.3784 0.3784 0.3784 (   790 PWs)   bands (ev):

    10.5133  10.5133  13.6591  13.6591  14.7169  14.7169  15.3850  15.3850
    17.3966  17.3966  17.9626  17.9626  26.9206  26.9206  34.9768  34.9768
    38.6147  38.6147  40.1519  40.1519  46.4271  46.4271  47.1988  47.1988

          k =-0.3649 0.3649 0.3649 (   790 PWs)   bands (ev):

    10.4869  10.4869  13.6846  13.6846  14.7473  14.7473  15.1133  15.1133
    17.2928  17.2928  17.8629  17.8629  27.4230  27.4230  35.1277  35.1277
    38.8505  38.8505  40.3878  40.3878  45.9932  45.9932  47.0009  47.0009

          k =-0.3514 0.3514 0.3514 (   790 PWs)   bands (ev):

    10.4501  10.4501  13.7111  13.7111  14.7413  14.7413  14.8953  14.8953
    17.1836  17.1836  17.7590  17.7590  27.9390  27.9390  35.2920  35.2920
    39.0965  39.0965  40.6336  40.6336  45.5604  45.5604  46.8015  46.8015

          k =-0.3378 0.3378 0.3378 (   802 PWs)   bands (ev):

    10.4007  10.4007  13.7380  13.7380  14.5672  14.5672  14.8664  14.8664
    17.0709  17.0709  17.6524  17.6524  28.4646  28.4646  35.4681  35.4681
    39.3475  39.3475  40.8836  40.8836  45.1365  45.1365  46.6070  46.6070

          k =-0.3243 0.3243 0.3243 (   802 PWs)   bands (ev):

    10.3369  10.3369  13.7650  13.7650  14.3555  14.3555  14.8992  14.8992
    16.9567  16.9567  17.5447  17.5447  28.9967  28.9967  35.6540  35.6540
    39.5972  39.5972  41.1310  41.1310  44.7287  44.7287  46.4253  46.4253

          k =-0.3108 0.3108 0.3108 (   796 PWs)   bands (ev):

    10.2569  10.2569  13.7914  13.7914  14.1636  14.1636  14.9381  14.9381
    16.8431  16.8431  17.4374  17.4374  29.5323  29.5323  35.8468  35.8468
    39.8379  39.8379  41.3668  41.3668  44.3450  44.3450  46.2660  46.2660

          k =-0.2973 0.2973 0.2973 (   796 PWs)   bands (ev):

    10.1599  10.1599  13.8164  13.8164  13.9983  13.9983  14.9772  14.9772
    16.7323  16.7323  17.3320  17.3320  30.0690  30.0690  36.0424  36.0424
    40.0606  40.0606  41.5805  41.5805  43.9937  43.9937  46.1402  46.1402

          k =-0.2838 0.2838 0.2838 (   796 PWs)   bands (ev):

    10.0461  10.0461  13.8395  13.8395  13.8611  13.8611  15.0138  15.0138
    16.6267  16.6267  17.2298  17.2298  30.6046  30.6046  36.2353  36.2353
    40.2550  40.2550  41.7597  41.7597  43.6840  43.6840  46.0410  46.0410

          k =-0.2703 0.2703 0.2703 (   796 PWs)   bands (ev):

     9.9166   9.9166  13.7519  13.7519  13.8600  13.8600  15.0457  15.0457
    16.5290  16.5290  17.1321  17.1321  31.1372  31.1372  36.4187  36.4187
    40.4109  40.4109  41.8926  41.8926  43.4253  43.4253  45.9338  45.9338

          k =-0.2568 0.2568 0.2568 (   797 PWs)   bands (ev):

     9.7735   9.7735  13.6689  13.6689  13.8773  13.8773  15.0707  15.0707
    16.4419  16.4419  17.0403  17.0403  31.6651  31.6651  36.5837  36.5837
    40.5207  40.5207  41.9700  41.9700  43.2255  43.2255  45.8830  45.8830

          k =-0.2432 0.2432 0.2432 (   800 PWs)   bands (ev):

     9.6196   9.6196  13.6096  13.6096  13.8909  13.8909  15.0864  15.0864
    16.3683  16.3683  16.9553  16.9553  32.1872  32.1872  36.7204  36.7204
    40.5827  40.5827  41.9886  41.9886  43.0895  43.0895  45.8964  45.8964

          k =-0.2297 0.2297 0.2297 (   800 PWs)   bands (ev):

     9.4579   9.4579  13.5709  13.5709  13.9002  13.9002  15.0909  15.0909
    16.3107  16.3107  16.8780  16.8780  32.7024  32.7024  36.8189  36.8189
    40.6019  40.6019  41.9521  41.9521  43.0185  43.0185  45.9776  45.9776

          k =-0.2162 0.2162 0.2162 (   800 PWs)   bands (ev):

     9.2917   9.2917  13.5494  13.5494  13.9049  13.9049  15.0830  15.0830
    16.2705  16.2705  16.8091  16.8091  33.2101  33.2101  36.8715  36.8715
    40.5875  40.5875  41.8696  41.8696  43.0121  43.0121  46.1246  46.1246

          k =-0.2027 0.2027 0.2027 (   800 PWs)   bands (ev):

     9.1241   9.1241  13.5417  13.5417  13.9049  13.9049  15.0629  15.0629
    16.2481  16.2481  16.7489  16.7489  33.7097  33.7097  36.8747  36.8747
    40.5476  40.5476  41.7523  41.7523  43.0703  43.0703  46.3306  46.3306

          k =-0.1892 0.1892 0.1892 (   800 PWs)   bands (ev):

     8.9578   8.9578  13.5449  13.5449  13.9003  13.9003  15.0323  15.0323
    16.2419  16.2419  16.6976  16.6976  34.2008  34.2008  36.8306  36.8306
    40.4871  40.4871  41.6111  41.6111  43.1925  43.1925  46.5853  46.5853

          k =-0.1757 0.1757 0.1757 (   800 PWs)   bands (ev):

     8.7954   8.7954  13.5558  13.5558  13.8913  13.8913  14.9939  14.9939
    16.2494  16.2494  16.6550  16.6550  34.6826  34.6826  36.7467  36.7467
    40.4088  40.4088  41.4553  41.4553  43.3742  43.3742  46.8772  46.8772

          k =-0.1622 0.1622 0.1622 (   800 PWs)   bands (ev):

     8.6388   8.6388  13.5719  13.5719  13.8783  13.8783  14.9510  14.9510
    16.2676  16.2676  16.6207  16.6207  35.1533  35.1533  36.6344  36.6344
    40.3158  40.3158  41.2924  41.2924  43.6050  43.6050  47.1936  47.1936

          k =-0.1486 0.1486 0.1486 (   797 PWs)   bands (ev):

     8.4899   8.4899  13.5910  13.5910  13.8621  13.8621  14.9067  14.9067
    16.2933  16.2933  16.5941  16.5941  35.6055  35.6055  36.5114  36.5114
    40.2122  40.2122  41.1285  41.1285  43.8670  43.8670  47.5194  47.5194

          k =-0.1351 0.1351 0.1351 (   797 PWs)   bands (ev):

     8.3501   8.3501  13.6110  13.6110  13.8434  13.8434  14.8637  14.8637
    16.3239  16.3239  16.5744  16.5744  35.9911  35.9911  36.4348  36.4348
    40.1036  40.1036  40.9680  40.9680  44.1347  44.1347  47.8294  47.8294

          k =-0.1216 0.1216 0.1216 (   803 PWs)   bands (ev):

     8.2206   8.2206  13.6303  13.6303  13.8230  13.8230  14.8239  14.8239
    16.3570  16.3570  16.5605  16.5605  36.0738  36.0738  36.6478  36.6478
    39.9956  39.9956  40.8147  40.8147  44.3740  44.3740  48.0674  48.0674

          k =-0.1081 0.1081 0.1081 (   803 PWs)   bands (ev):

     8.1025   8.1025  13.6477  13.6477  13.8019  13.8019  14.7888  14.7888
    16.3907  16.3907  16.5515  16.5515  35.9612  35.9612  37.0477  37.0477
    39.8942  39.8942  40.6714  40.6714  44.5421  44.5421  48.1597  48.1597

          k =-0.0946 0.0946 0.0946 (   803 PWs)   bands (ev):

     7.9967   7.9967  13.6625  13.6625  13.7810  13.7810  14.7593  14.7593
    16.4235  16.4235  16.5464  16.5464  35.8276  35.8276  37.4608  37.4608
    39.8059  39.8059  40.5404  40.5404  44.5975  44.5975  48.1851  48.1851

          k =-0.0811 0.0811 0.0811 (   803 PWs)   bands (ev):

     7.9037   7.9037  13.6742  13.6742  13.7609  13.7609  14.7354  14.7354
    16.4541  16.4541  16.5441  16.5441  35.6994  35.6994  37.8572  37.8572
    39.7387  39.7387  40.4236  40.4236  44.5224  44.5224  48.2779  48.2779

          k =-0.0676 0.0676 0.0676 (   797 PWs)   bands (ev):

     7.8242   7.8242  13.6829  13.6829  13.7427  13.7427  14.7171  14.7171
    16.4816  16.4816  16.5439  16.5439  35.5844  35.5844  38.2181  38.2181
    39.7043  39.7043  40.3225  40.3225  44.3362  44.3362  48.4642  48.4642

          k =-0.0541 0.0541 0.0541 (   797 PWs)   bands (ev):

     7.7585   7.7585  13.6889  13.6889  13.7268  13.7268  14.7036  14.7036
    16.5051  16.5051  16.5449  16.5449  35.4865  35.4865  38.5188  38.5188
    39.7191  39.7191  40.2382  40.2382  44.0825  44.0825  48.7098  48.7098

          k =-0.0405 0.0405 0.0405 (   791 PWs)   bands (ev):

     7.7071   7.7071  13.6928  13.6928  13.7139  13.7139  14.6943  14.6943
    16.5240  16.5240  16.5464  16.5464  35.4081  35.4081  38.7322  38.7322
    39.7973  39.7973  40.1718  40.1718  43.8091  43.8091  48.9664  48.9664

          k =-0.0270 0.0270 0.0270 (   791 PWs)   bands (ev):

     7.6703   7.6703  13.6951  13.6951  13.7043  13.7043  14.6884  14.6884
    16.5379  16.5379  16.5478  16.5478  35.3510  35.3510  38.8529  38.8529
    39.9225  39.9225  40.1238  40.1238  43.5618  43.5618  49.1891  49.1891

          k =-0.0135 0.0135 0.0135 (   791 PWs)   bands (ev):

     7.6481   7.6481  13.6962  13.6962  13.6985  13.6985  14.6851  14.6851
    16.5463  16.5463  16.5488  16.5488  35.3163  35.3163  38.9070  38.9070
    40.0383  40.0383  40.0948  40.0948  43.3860  43.3860  49.3402  49.3402

          k = 0.0000 0.0000 0.0000 (   821 PWs)   bands (ev):

     7.6406   7.6406  13.6964  13.6964  13.6964  13.6964  14.6840  14.6840
    16.5491  16.5491  16.5491  16.5491  35.3046  35.3046  38.9217  38.9217
    40.0851  40.0851  40.0851  40.0851  43.3217  43.3217  49.3937  49.3937

          k =-0.0238 0.0000 0.0000 (   793 PWs)   bands (ev):

     7.6483   7.6483  13.6949  13.6949  13.6998  13.6998  14.6851  14.6851
    16.5440  16.5440  16.5509  16.5509  35.3167  35.3167  38.9072  38.9072
    40.0473  40.0473  40.0833  40.0833  43.3889  43.3889  49.3386  49.3386

          k =-0.0476 0.0000 0.0000 (   785 PWs)   bands (ev):

     7.6713   7.6713  13.6898  13.6898  13.7098  13.7098  14.6886  14.6886
    16.5287  16.5287  16.5565  16.5565  35.3528  35.3528  38.8630  38.8630
    39.9447  39.9447  40.0774  40.0774  43.5791  43.5791  49.1847  49.1847

          k =-0.0714 0.0000 0.0000 (   793 PWs)   bands (ev):

     7.7095   7.7095  13.6808  13.6808  13.7262  13.7262  14.6951  14.6951
    16.5033  16.5033  16.5657  16.5657  35.4126  35.4126  38.7872  38.7872
    39.8022  39.8022  40.0667  40.0667  43.8659  43.8659  48.9597  48.9597

          k =-0.0952 0.0000 0.0000 (   793 PWs)   bands (ev):

     7.7629   7.7629  13.6670  13.6670  13.7491  13.7491  14.7056  14.7056
    16.4685  16.4685  16.5786  16.5786  35.4958  35.4958  38.6790  38.6790
    39.6438  39.6438  40.0497  40.0497  44.2197  44.2197  48.6942  48.6942

          k =-0.1190 0.0000 0.0000 (   793 PWs)   bands (ev):

     7.8312   7.8312  13.6474  13.6474  13.7782  13.7782  14.7212  14.7212
    16.4247  16.4247  16.5954  16.5954  35.6018  35.6018  38.5408  38.5408
    39.4835  39.4835  40.0243  40.0243  44.6117  44.6117  48.4165  48.4165

          k =-0.1429 0.0000 0.0000 (   801 PWs)   bands (ev):

     7.9142   7.9142  13.6211  13.6211  13.8132  13.8132  14.7434  14.7434
    16.3728  16.3728  16.6159  16.6159  35.7299  35.7299  38.3797  38.3797
    39.3248  39.3248  39.9880  39.9880  45.0094  45.0094  48.1545  48.1545

          k =-0.1667 0.0000 0.0000 (   801 PWs)   bands (ev):

     8.0116   8.0116  13.5872  13.5872  13.8539  13.8539  14.7732  14.7732
    16.3138  16.3138  16.6403  16.6403  35.8793  35.8793  38.2055  38.2055
    39.1635  39.1635  39.9377  39.9377  45.3642  45.3642  47.9454  47.9454

          k =-0.1905 0.0000 0.0000 (   797 PWs)   bands (ev):

     8.1230   8.1230  13.5451  13.5451  13.8998  13.8998  14.8115  14.8115
    16.2489  16.2489  16.6687  16.6687  36.0490  36.0490  38.0276  38.0276
    38.9927  38.9927  39.8699  39.8699  45.5961  45.5961  47.8434  47.8434

          k =-0.2143 0.0000 0.0000 (   797 PWs)   bands (ev):

     8.2480   8.2480  13.4947  13.4947  13.9502  13.9502  14.8591  14.8591
    16.1798  16.1798  16.7009  16.7009  36.2380  36.2380  37.8534  37.8534
    38.8062  38.8062  39.7810  39.7810  45.6149  45.6149  47.8703  47.8703

          k =-0.2381 0.0000 0.0000 (   797 PWs)   bands (ev):

     8.3860   8.3860  13.4361  13.4361  14.0044  14.0044  14.9162  14.9162
    16.1081  16.1081  16.7370  16.7370  36.4449  36.4449  37.6877  37.6877
    38.5995  38.5995  39.6674  39.6674  45.4055  45.4055  47.8751  47.8751

          k =-0.2619 0.0000 0.0000 (   805 PWs)   bands (ev):

     8.5363   8.5363  13.3698  13.3698  14.0613  14.0613  14.9829  14.9829
    16.0362  16.0362  16.7768  16.7768  36.6686  36.6686  37.5327  37.5327
    38.3705  38.3705  39.5260  39.5260  45.0280  45.0280  47.7579  47.7579

          k =-0.2857 0.0000 0.0000 (   805 PWs)   bands (ev):

     8.6981   8.6981  13.2964  13.2964  14.1197  14.1197  15.0589  15.0589
    15.9669  15.9669  16.8205  16.8205  36.9077  36.9077  37.3879  37.3879
    38.1206  38.1206  39.3544  39.3544  44.5416  44.5416  47.6314  47.6314

          k =-0.3095 0.0000 0.0000 (   805 PWs)   bands (ev):

     8.8704   8.8704  13.2168  13.2168  14.1779  14.1779  15.1439  15.1439
    15.9032  15.9032  16.8678  16.8678  37.1605  37.1605  37.2475  37.2475
    37.8568  37.8568  39.1516  39.1516  43.9850  43.9850  47.5500  47.5500

          k =-0.3333 0.0000 0.0000 (   805 PWs)   bands (ev):

     9.0518   9.0518  13.1319  13.1319  14.2341  14.2341  15.2376  15.2376
    15.8488  15.8488  16.9186  16.9186  37.0939  37.0939  37.4251  37.4251
    37.5986  37.5986  38.9177  38.9177  43.3823  43.3823  47.5236  47.5236

          k =-0.3571 0.0000 0.0000 (   805 PWs)   bands (ev):

     9.2410   9.2410  13.0425  13.0425  14.2863  14.2863  15.3393  15.3393
    15.8079  15.8079  16.9729  16.9729  36.8886  36.8886  37.3866  37.3866
    37.6987  37.6987  38.6553  38.6553  42.7491  42.7491  47.5511  47.5511

[...]

          k =-1.0000 0.1905 0.0000 (   782 PWs)   bands (ev):

    11.1431  11.1431  11.5406  11.5406  16.3961  16.3961  17.5315  17.5315
    18.7126  18.7126  21.9545  21.9545  26.3827  26.3827  29.2355  29.2355
    30.7099  30.7099  40.4111  40.4111  43.6426  43.6426  51.2565  51.2565

          k =-1.0000 0.2143 0.0000 (   786 PWs)   bands (ev):

    11.2287  11.2287  11.6199  11.6199  16.1221  16.1221  17.4156  17.4156
    18.6914  18.6914  22.3009  22.3009  26.2597  26.2597  29.1569  29.1569
    30.7010  30.7010  40.7858  40.7858  43.7044  43.7044  50.7836  50.7836

          k =-1.0000 0.2381 0.0000 (   786 PWs)   bands (ev):

    11.3212  11.3212  11.7083  11.7083  15.8514  15.8514  17.2894  17.2894
    18.6736  18.6736  22.6479  22.6479  26.1428  26.1428  29.0548  29.0548
    30.6946  30.6946  41.1881  41.1881  43.7802  43.7802  50.3055  50.3055

          k =-1.0000 0.2619 0.0000 (   778 PWs)   bands (ev):

    11.4192  11.4192  11.8057  11.8057  15.5853  15.5853  17.1549  17.1549
    18.6588  18.6588  22.9942  22.9942  26.0339  26.0339  28.9301  28.9301
    30.6902  30.6902  41.6131  41.6131  43.8716  43.8716  49.8297  49.8297

          k =-1.0000 0.2857 0.0000 (   778 PWs)   bands (ev):

    11.5211  11.5211  11.9121  11.9121  15.3246  15.3246  17.0150  17.0150
    18.6464  18.6464  23.3384  23.3384  25.9343  25.9343  28.7841  28.7841
    30.6871  30.6871  42.0556  42.0556  43.9801  43.9801  49.3612  49.3612

          k =-1.0000 0.3095 0.0000 (   782 PWs)   bands (ev):

    11.6249  11.6249  12.0274  12.0274  15.0699  15.0699  16.8728  16.8728
    18.6362  18.6362  23.6788  23.6788  25.8452  25.8452  28.6187  28.6187
    30.6849  30.6849  42.5093  42.5093  44.1069  44.1069  48.9035  48.9035

          k =-1.0000 0.3333 0.0000 (   782 PWs)   bands (ev):

    11.7285  11.7285  12.1516  12.1516  14.8220  14.8220  16.7319  16.7319
    18.6279  18.6279  24.0135  24.0135  25.7672  25.7672  28.4363  28.4363
    30.6833  30.6833  42.9670  42.9670  44.2531  44.2531  48.4594  48.4594

          k =-1.0000 0.3571 0.0000 (   778 PWs)   bands (ev):

    11.8289  11.8289  12.2845  12.2845  14.5811  14.5811  16.5964  16.5964
    18.6212  18.6212  24.3397  24.3397  25.7012  25.7012  28.2397  28.2397
    30.6819  30.6819  43.4197  43.4197  44.4197  44.4197  48.0308  48.0308

          k =-1.0000 0.3810 0.0000 (   780 PWs)   bands (ev):

    11.9230  11.9230  12.4259  12.4259  14.3478  14.3478  16.4704  16.4704
    18.6159  18.6159  24.6529  24.6529  25.6485  25.6485  28.0323  28.0323
    30.6806  30.6806  43.8562  43.8562  44.6075  44.6075  47.6192  47.6192

          k =-1.0000 0.4048 0.0000 (   782 PWs)   bands (ev):

    12.0074  12.0074  12.5756  12.5756  14.1227  14.1227  16.3585  16.3585
    18.6117  18.6117  24.9451  24.9451  25.6122  25.6122  27.8196  27.8196
    30.6795  30.6795  44.2618  44.2618  44.8168  44.8168  47.2260  47.2260

          k =-1.0000 0.4286 0.0000 (   782 PWs)   bands (ev):

    12.0782  12.0782  12.7328  12.7328  13.9066  13.9066  16.2652  16.2652
    18.6086  18.6086  25.1969  25.1969  25.6033  25.6033  27.6101  27.6101
    30.6785  30.6785  44.6187  44.6187  45.0461  45.0461  46.8525  46.8525

          k =-1.0000 0.4524 0.0000 (   780 PWs)   bands (ev):

    12.1321  12.1321  12.8955  12.8955  13.7018  13.7018  16.1949  16.1949
    18.6065  18.6065  25.3605  25.3605  25.6543  25.6543  27.4194  27.4194
    30.6778  30.6778  44.9064  44.9064  45.2912  45.2912  46.5005  46.5005

          k =-1.0000 0.4762 0.0000 (   780 PWs)   bands (ev):

    12.1658  12.1658  13.0556  13.0556  13.5164  13.5164  16.1511  16.1511
    18.6052  18.6052  25.4146  25.4146  25.7582  25.7582  27.2756  27.2756
    30.6773  30.6773  45.0988  45.0988  45.5479  45.5479  46.1747  46.1747

          k =-1.0000 0.5000 0.0000 (   772 PWs)   bands (ev):

    12.1773  12.1773  13.1530  13.1530  13.4106  13.4106  16.1362  16.1362
    18.6049  18.6049  25.4238  25.4238  25.8096  25.8096  27.2198  27.2198
    30.6771  30.6771  45.1672  45.1672  45.7527  45.7527  45.9457  45.9457

          k =-0.9787 0.4894 0.0000 (   777 PWs)   bands (ev):

    12.1785  12.1785  13.1274  13.1274  13.4337  13.4337  16.1412  16.1412
    18.5957  18.5957  25.3026  25.3026  25.8944  25.8944  27.2491  27.2491
    30.7073  30.7073  44.9634  44.9634  45.6972  45.6972  46.2005  46.2005

          k =-0.9574 0.4787 0.0000 (   779 PWs)   bands (ev):

    12.1824  12.1824  13.0712  13.0712  13.4808  13.4808  16.1566  16.1566
    18.5687  18.5687  25.0368  25.0368  26.0625  26.0625  27.3291  27.3291
    30.7947  30.7947  44.6210  44.6210  45.5701  45.5701  46.6543  46.6543

          k =-0.9362 0.4681 0.0000 (   779 PWs)   bands (ev):

    12.1892  12.1892  13.0057  13.0057  13.5288  13.5288  16.1828  16.1828
    18.5244  18.5244  24.7112  24.7112  26.2471  26.2471  27.4480  27.4480
    30.9343  30.9343  44.2610  44.2610  45.4337  45.4337  47.1184  47.1184

          k =-0.9149 0.4574 0.0000 (   779 PWs)   bands (ev):

    12.1990  12.1990  12.9391  12.9391  13.5684  13.5684  16.2191  16.2191
    18.4640  18.4640  24.3543  24.3543  26.4326  26.4326  27.5992  27.5992
    31.1203  31.1203  43.9042  43.9042  45.2927  45.2927  47.5593  47.5593

          k =-0.8936 0.4468 0.0000 (   777 PWs)   bands (ev):

    12.2113  12.2113  12.8747  12.8747  13.5963  13.5963  16.2638  16.2638
    18.3889  18.3889  23.9804  23.9804  26.6137  26.6137  27.7807  27.7807
    31.3468  31.3468  43.5584  43.5584  45.1467  45.1467  47.9605  47.9605

          k =-0.8723 0.4362 0.0000 (   781 PWs)   bands (ev):

    12.2256  12.2256  12.8140  12.8140  13.6118  13.6118  16.3140  16.3140
    18.3005  18.3005  23.5981  23.5981  26.7890  26.7890  27.9922  27.9922
    31.6076  31.6076  43.2278  43.2278  44.9946  44.9946  48.3098  48.3098

          k =-0.8511 0.4255 0.0000 (   785 PWs)   bands (ev):

    12.2412  12.2412  12.7579  12.7579  13.6157  13.6157  16.3663  16.3663
    18.2005  18.2005  23.2133  23.2133  26.9597  26.9597  28.2334  28.2334
    31.8970  31.8970  42.9154  42.9154  44.8353  44.8353  48.5987  48.5987

          k =-0.8298 0.4149 0.0000 (   789 PWs)   bands (ev):

    12.2568  12.2568  12.7072  12.7072  13.6094  13.6094  16.4171  16.4171
    18.0904  18.0904  22.8303  22.8303  27.1296  27.1296  28.5025  28.5025
    32.2095  32.2095  42.6238  42.6238  44.6676  44.6676  48.8235  48.8235

          k =-0.8085 0.4043 0.0000 (   789 PWs)   bands (ev):

    12.2709  12.2709  12.6622  12.6622  13.5953  13.5953  16.4625  16.4625
    17.9719  17.9719  22.4521  22.4521  27.3039  27.3039  28.7967  28.7967
    32.5402  32.5402  42.3553  42.3553  44.4903  44.4903  48.9858  48.9858

          k =-0.7872 0.3936 0.0000 (   789 PWs)   bands (ev):

    12.2813  12.2813  12.6234  12.6234  13.5760  13.5760  16.4992  16.4992
    17.8465  17.8465  22.0814  22.0814  27.4878  27.4878  29.1128  29.1128
    32.8846  32.8846  42.1119  42.1119  44.3026  44.3026  49.0901  49.0901

          k =-0.7660 0.3830 0.0000 (   789 PWs)   bands (ev):

    12.2854  12.2854  12.5911  12.5911  13.5546  13.5546  16.5244  16.5244
    17.7157  17.7157  21.7198  21.7198  27.6863  27.6863  29.4479  29.4479
    33.2387  33.2387  41.8956  41.8956  44.1038  44.1038  49.1426  49.1426

          k =-0.7447 0.3723-0.0000 (   789 PWs)   bands (ev):

    12.2800  12.2800  12.5655  12.5655  13.5346  13.5346  16.5359  16.5359
    17.5810  17.5810  21.3688  21.3688  27.9033  27.9033  29.7991  29.7991
    33.5991  33.5991  41.7084  41.7084  43.8936  43.8936  49.1491  49.1491

          k =-0.7234 0.3617 0.0000 (   791 PWs)   bands (ev):

    12.2617  12.2617  12.5466  12.5466  13.5193  13.5193  16.5327  16.5327
    17.4438  17.4438  21.0294  21.0294  28.1416  28.1416  30.1641  30.1641
    33.9626  33.9626  41.5523  41.5523  43.6718  43.6718  49.1143  49.1143

          k =-0.7021 0.3511 0.0000 (   791 PWs)   bands (ev):

    12.2275  12.2275  12.5342  12.5342  13.5121  13.5121  16.5145  16.5145
    17.3054  17.3054  20.7023  20.7023  28.4028  28.4028  30.5408  30.5408
    34.3262  34.3262  41.4289  41.4289  43.4385  43.4385  49.0422  49.0422

          k =-0.6809 0.3404 0.0000 (   789 PWs)   bands (ev):

    12.1746  12.1746  12.5281  12.5281  13.5154  13.5154  16.4819  16.4819
    17.1671  17.1671  20.3879  20.3879  28.6875  28.6875  30.9272  30.9272
    34.6876  34.6876  41.3402  41.3402  43.1944  43.1944  48.9358  48.9358

          k =-0.6596 0.3298 0.0000 (   789 PWs)   bands (ev):

    12.1016  12.1016  12.5280  12.5280  13.5307  13.5307  16.4362  16.4362
    17.0302  17.0302  20.0862  20.0862  28.9955  28.9955  31.3217  31.3217
    35.0444  35.0444  41.2873  41.2873  42.9404  42.9404  48.7981  48.7981

          k =-0.6383 0.3191 0.0000 (   793 PWs)   bands (ev):

    12.0077  12.0077  12.5340  12.5340  13.5579  13.5579  16.3792  16.3792
    16.8957  16.8957  19.7973  19.7973  29.3255  29.3255  31.7224  31.7224
    35.3952  35.3952  41.2711  41.2711  42.6779  42.6779  48.6320  48.6320

          k =-0.6170 0.3085 0.0000 (   795 PWs)   bands (ev):

    11.8935  11.8935  12.5462  12.5462  13.5961  13.5961  16.3132  16.3132
    16.7645  16.7645  19.5210  19.5210  29.6759  29.6759  32.1277  32.1277
    35.7391  35.7391  41.2907  41.2907  42.4093  42.4093  48.4406  48.4406

          k =-0.5957 0.2979-0.0000 (   795 PWs)   bands (ev):

    11.7603  11.7603  12.5645  12.5645  13.6434  13.6434  16.2406  16.2406
    16.6376  16.6376  19.2571  19.2571  30.0441  30.0441  32.5359  32.5359
    36.0759  36.0759  41.3419  41.3419  42.1398  42.1398  48.2278  48.2278

          k =-0.5745 0.2872 0.0000 (   800 PWs)   bands (ev):

    11.6098  11.6098  12.5889  12.5889  13.6979  13.6979  16.1637  16.1637
    16.5157  16.5157  19.0054  19.0054  30.4273  30.4273  32.9450  32.9450
    36.4065  36.4065  41.4055  41.4055  41.8885  41.8885  47.9978  47.9978

          k =-0.5532 0.2766 0.0000 (   796 PWs)   bands (ev):

    11.4441  11.4441  12.6191  12.6191  13.7573  13.7573  16.0846  16.0846
    16.3996  16.3996  18.7658  18.7658  30.8223  30.8223  33.3531  33.3531
    36.7331  36.7331  41.3795  41.3795  41.7561  41.7561  47.7560  47.7560

          k =-0.5319 0.2660 0.0000 (   796 PWs)   bands (ev):

    11.2654  11.2654  12.6548  12.6548  13.8193  13.8193  16.0050  16.0050
    16.2904  16.2904  18.5383  18.5383  31.2257  31.2257  33.7581  33.7581
    37.0584  37.0584  41.1640  41.1640  41.8395  41.8395  47.5083  47.5083

          k =-0.5106 0.2553 0.0000 (   800 PWs)   bands (ev):

    11.0759  11.0759  12.6957  12.6957  13.8817  13.8817  15.9259  15.9259
    16.1891  16.1891  18.3230  18.3230  31.6338  31.6338  34.1578  34.1578
    37.3856  37.3856  40.8875  40.8875  42.0060  42.0060  47.2623  47.2623

          k =-0.4894 0.2447 0.0000 (   800 PWs)   bands (ev):

    10.8778  10.8778  12.7415  12.7415  13.9422  13.9422  15.8479  15.8479
    16.0976  16.0976  18.1203  18.1203  32.0434  32.0434  34.5500  34.5500
    37.7180  37.7180  40.5988  40.5988  42.2008  42.2008  47.0268  47.0268

          k =-0.4681 0.2340 0.0000 (   800 PWs)   bands (ev):

    10.6734  10.6734  12.7917  12.7917  13.9983  13.9983  15.7708  15.7708
    16.0176  16.0176  17.9304  17.9304  32.4509  32.4509  34.9321  34.9321
    38.0574  38.0574  40.3097  40.3097  42.4052  42.4052  46.8126  46.8126

          k =-0.4468 0.2234 0.0000 (   802 PWs)   bands (ev):

    10.4646  10.4646  12.8459  12.8459  14.0476  14.0476  15.6940  15.6940
    15.9516  15.9516  17.7538  17.7538  32.8534  32.8534  35.3015  35.3015
    38.4026  38.4026  40.0280  40.0280  42.6047  42.6047  46.6329  46.6329

          k =-0.4255 0.2128 0.0000 (   800 PWs)   bands (ev):

    10.2536  10.2536  12.9035  12.9035  14.0879  14.0879  15.6171  15.6171
    15.9016  15.9016  17.5909  17.5909  33.2487  33.2487  35.6548  35.6548
    38.7434  38.7434  39.7676  39.7676  42.7852  42.7852  46.5029  46.5029

          k =-0.4043 0.2021 0.0000 (   802 PWs)   bands (ev):

    10.0423  10.0423  12.9638  12.9638  14.1173  14.1173  15.5395  15.5395
    15.8690  15.8690  17.4420  17.4420  33.6350  33.6350  35.9875  35.9875
    39.0248  39.0248  39.5852  39.5852  42.9344  42.9344  46.4376  46.4376

          k =-0.3830 0.1915 0.0000 (   800 PWs)   bands (ev):

     9.8325   9.8325  13.0262  13.0262  14.1345  14.1345  15.4614  15.4614
    15.8542  15.8542  17.3074  17.3074  34.0116  34.0116  36.2925  36.2925
    39.0447  39.0447  39.6824  39.6824  43.0468  43.0468  46.4485  46.4485

          k =-0.3617 0.1809 0.0000 (   804 PWs)   bands (ev):

     9.6258   9.6258  13.0901  13.0901  14.1391  14.1391  15.3831  15.3831
    15.8567  15.8567  17.1870  17.1870  34.3786  34.3786  36.5583  36.5583
    38.8816  38.8816  39.9792  39.9792  43.1286  43.1286  46.5382  46.5382

          k =-0.3404 0.1702 0.0000 (   804 PWs)   bands (ev):

     9.4239   9.4239  13.1545  13.1545  14.1319  14.1319  15.3053  15.3053
    15.8750  15.8750  17.0805  17.0805  34.7366  34.7366  36.7666  36.7666
    38.7236  38.7236  40.2860  40.2860  43.2015  43.2015  46.6987  46.6987

          k =-0.3191 0.1596-0.0000 (   804 PWs)   bands (ev):

     9.2280   9.2280  13.2188  13.2188  14.1142  14.1142  15.2285  15.2285
    15.9070  15.9070  16.9875  16.9875  35.0871  35.0871  36.8929  36.8929
    38.6259  38.6259  40.5456  40.5456  43.2988  43.2988  46.9135  46.9135

          k =-0.2979 0.1489 0.0000 (   802 PWs)   bands (ev):

     9.0395   9.0395  13.2819  13.2819  14.0880  14.0880  15.1537  15.1537
    15.9499  15.9499  16.9072  16.9072  35.4313  35.4313  36.9191  36.9191
    38.6123  38.6123  40.7270  40.7270  43.4531  43.4531  47.1608  47.1608

          k =-0.2766 0.1383 0.0000 (   800 PWs)   bands (ev):

     8.8595   8.8595  13.3429  13.3429  14.0554  14.0554  15.0818  15.0818
    16.0012  16.0012  16.8385  16.8385  35.7705  35.7705  36.8536  36.8536
    38.6762  38.6762  40.8174  40.8174  43.6802  43.6802  47.4148  47.4148

          k =-0.2553 0.1277 0.0000 (   798 PWs)   bands (ev):

     8.6891   8.6891  13.4009  13.4009  14.0184  14.0184  15.0140  15.0140
    16.0581  16.0581  16.7803  16.7803  36.1033  36.1033  36.7290  36.7290
    38.7881  38.7881  40.8262  40.8262  43.9696  43.9696  47.6495  47.6495

          k =-0.2340 0.1170 0.0000 (   799 PWs)   bands (ev):

     8.5292   8.5292  13.4550  13.4550  13.9790  13.9790  14.9513  14.9513
    16.1182  16.1182  16.7315  16.7315  36.3977  36.3977  36.6082  36.6082
    38.9186  38.9186  40.7760  40.7760  44.2904  44.2904  47.8520  47.8520

          k =-0.2128 0.1064 0.0000 (   799 PWs)   bands (ev):

     8.3806   8.3806  13.5043  13.5043  13.9387  13.9387  14.8946  14.8946
    16.1794  16.1794  16.6909  16.6909  36.3531  36.3531  36.8126  36.8126
    39.0485  39.0485  40.6904  40.6904  44.6010  44.6010  48.0160  48.0160

          k =-0.1915 0.0957 0.0000 (   799 PWs)   bands (ev):

     8.2441   8.2441  13.5481  13.5481  13.8989  13.8989  14.8449  14.8449
    16.2399  16.2399  16.6575  16.6575  36.1863  36.1863  37.1372  37.1372
    39.1680  39.1680  40.5881  40.5881  44.8501  44.8501  48.0883  48.0883

          k =-0.1702 0.0851-0.0000 (   802 PWs)   bands (ev):

     8.1203   8.1203  13.5857  13.5857  13.8607  13.8607  14.8026  14.8026
    16.2979  16.2979  16.6302  16.6302  36.0192  36.0192  37.4655  37.4655
    39.2736  39.2736  40.4825  40.4825  44.9795  44.9795  48.0512  48.0512

          k =-0.1489 0.0745 0.0000 (   801 PWs)   bands (ev):

     8.0098   8.0098  13.6171  13.6171  13.8250  13.8250  14.7679  14.7679
    16.3522  16.3522  16.6081  16.6081  35.8626  35.8626  37.7871  37.7871
    39.3665  39.3665  40.3830  40.3830  44.9475  44.9475  48.0635  48.0635

          k =-0.1277 0.0638 0.0000 (   801 PWs)   bands (ev):

     7.9131   7.9131  13.6422  13.6422  13.7927  13.7927  14.7405  14.7405
    16.4015  16.4015  16.5906  16.5906  35.7211  35.7211  38.0928  38.0928
    39.4526  39.4526  40.2958  40.2958  44.7641  44.7641  48.1977  48.1977

          k =-0.1064 0.0532 0.0000 (   799 PWs)   bands (ev):

     7.8305   7.8305  13.6615  13.6615  13.7643  13.7643  14.7198  14.7198
    16.4449  16.4449  16.5768  16.5768  35.5975  35.5975  38.3684  38.3684
    39.5429  39.5429  40.2242  40.2242  44.4825  44.4825  48.4238  48.4238

          k =-0.0851 0.0426 0.0000 (   797 PWs)   bands (ev):

     7.7625   7.7625  13.6757  13.6757  13.7405  13.7405  14.7050  14.7050
    16.4815  16.4815  16.5663  16.5663  35.4940  35.4940  38.5954  38.5954
    39.6514  39.6514  40.1692  40.1692  44.1603  44.1603  48.6912  48.6912

          k =-0.0638 0.0319 0.0000 (   791 PWs)   bands (ev):

     7.7094   7.7094  13.6856  13.6856  13.7215  13.7215  14.6949  14.6949
    16.5108  16.5108  16.5585  16.5585  35.4119  35.4119  38.7582  38.7582
    39.7852  39.7852  40.1299  40.1299  43.8442  43.8442  48.9568  48.9568

          k =-0.0426 0.0213 0.0000 (   791 PWs)   bands (ev):

     7.6712   7.6712  13.6919  13.6919  13.7077  13.7077  14.6886  14.6886
    16.5320  16.5320  16.5532  16.5532  35.3526  35.3526  38.8571  38.8571
    39.9281  39.9281  40.1042  40.1042  43.5740  43.5740  49.1839  49.1839

          k =-0.0213 0.0106 0.0000 (   791 PWs)   bands (ev):

     7.6483   7.6483  13.6954  13.6954  13.6993  13.6993  14.6851  14.6851
    16.5449  16.5449  16.5502  16.5502  35.3167  35.3167  38.9069  38.9069
    40.0415  40.0415  40.0897  40.0897  43.3884  43.3884  49.3386  49.3386

          k = 0.0000 0.0000 0.0000 (   821 PWs)   bands (ev):

     7.6406   7.6406  13.6964  13.6964  13.6964  13.6964  14.6840  14.6840
    16.5491  16.5491  16.5491  16.5491  35.3046  35.3046  38.9217  38.9217
    40.0851  40.0851  40.0851  40.0851  43.3217  43.3217  49.3937  49.3937

     Writing all to output data dir ./temp/Pt.save/
 
     init_run     :      0.07s CPU      0.08s WALL (       1 calls)
     electrons    :      2.03s CPU      2.14s WALL (       1 calls)

     Called by init_run:
     wfcinit      :      0.00s CPU      0.00s WALL (       1 calls)
     wfcinit:atom :      0.00s CPU      0.00s WALL (      12 calls)
     wfcinit:wfcr :      0.05s CPU      0.06s WALL (      12 calls)
     potinit      :      0.00s CPU      0.01s WALL (       1 calls)
     hinit0       :      0.04s CPU      0.04s WALL (       1 calls)

     Called by electrons:
     c_bands      :      2.02s CPU      2.11s WALL (       1 calls)
     v_of_rho     :      0.00s CPU      0.00s WALL (       1 calls)
     v_h          :      0.00s CPU      0.00s WALL (       1 calls)
     v_xc         :      0.00s CPU      0.00s WALL (       1 calls)

     Called by c_bands:
     init_us_2    :      0.00s CPU      0.00s WALL (      12 calls)
     init_us_2:cp :      0.00s CPU      0.00s WALL (      12 calls)
     cegterg      :      1.36s CPU      1.44s WALL (      25 calls)

     Called by sum_band:

     Called by *egterg:
     cdiaghg      :      0.24s CPU      0.25s WALL (     412 calls)
     cegterg:over :      0.07s CPU      0.07s WALL (     400 calls)
     cegterg:upda :      0.03s CPU      0.03s WALL (     400 calls)
     cegterg:last :      0.05s CPU      0.05s WALL (     212 calls)
     h_psi        :      0.98s CPU      1.05s WALL (     437 calls)
     g_psi        :      0.02s CPU      0.02s WALL (     400 calls)

     Called by h_psi:
     h_psi:calbec :      0.02s CPU      0.02s WALL (     437 calls)
     vloc_psi     :      0.94s CPU      1.01s WALL (     437 calls)
     add_vuspsi   :      0.02s CPU      0.02s WALL (     437 calls)

     General routines
     calbec       :      0.02s CPU      0.02s WALL (     437 calls)
     fft          :      0.01s CPU      0.01s WALL (      14 calls)
     fftw         :      0.82s CPU      0.88s WALL (   22104 calls)
 
     Parallel routines
 
     PWSCF        :      2.38s CPU      2.55s WALL

 
   This run was terminated on:  15:18:29  13May2022            

=------------------------------------------------------------------------------=
   JOB DONE.
=------------------------------------------------------------------------------=
