
     Program PWSCF v.7.0 starts on 13May2022 at 15:23:19 

     This program is part of the open-source Quantum ESPRESSO suite
     for quantum simulation of materials; please cite
         "P. Giannozzi et al., J. Phys.:Condens. Matter 21 395502 (2009);
         "P. Giannozzi et al., J. Phys.:Condens. Matter 29 465901 (2017);
         "P. Giannozzi et al., J. Chem. Phys. 152 154105 (2020);
          URL http://www.quantum-espresso.org", 
     in publications or presentations arising from this work. More details at
     http://www.quantum-espresso.org/quote

     Parallel version (MPI & OpenMP), running on      60 processor cores
     Number of MPI processes:                60
     Threads/MPI process:                     1

     MPI processes distributed on     3 nodes
     17786 MiB available memory on the printing compute node when the environment starts
 
     Reading input from nscf.in

     Current dimensions of program PWSCF are:
     Max number of different atomic species (ntypx) = 10
     Max number of k-points (npk) =  40000
     Max angular momentum in pseudopotentials (lmaxx) =  4

     Atomic positions and unit cell read from directory:
     ./temp/Pt.save/
 
 
     K-points division:     npool     =      15
     R & G space division:  proc/nbgrp/npool/nimage =       4
     Subspace diagonalization in iterative solution of the eigenvalue problem:
     a serial algorithm will be used

 
     Parallelization info
     --------------------
     sticks:   dense  smooth     PW     G-vecs:    dense   smooth      PW
     Min         112     112     37                 1593     1593     309
     Max         113     113     38                 1594     1594     312
     Sum         451     451    151                 6375     6375    1243
 
     Using Slab Decomposition
 


     bravais-lattice index     =            2
     lattice parameter (alat)  =       7.3926  a.u.
     unit-cell volume          =     101.0024 (a.u.)^3
     number of atoms/cell      =            1
     number of atomic types    =            1
     number of electrons       =        10.00
     number of Kohn-Sham states=           24
     kinetic-energy cutoff     =      60.0000  Ry
     charge density cutoff     =     240.0000  Ry
     Exchange-correlation= PBESOL
                           (   1   4  10   8   0   0   0)
     Non magnetic calculation with spin-orbit


     celldm(1)=   7.392600  celldm(2)=   0.000000  celldm(3)=   0.000000
     celldm(4)=   0.000000  celldm(5)=   0.000000  celldm(6)=   0.000000

     crystal axes: (cart. coord. in units of alat)
               a(1) = (  -0.500000   0.000000   0.500000 )  
               a(2) = (   0.000000   0.500000   0.500000 )  
               a(3) = (  -0.500000   0.500000   0.000000 )  

     reciprocal axes: (cart. coord. in units 2 pi/alat)
               b(1) = ( -1.000000 -1.000000  1.000000 )  
               b(2) = (  1.000000  1.000000  1.000000 )  
               b(3) = ( -1.000000  1.000000 -1.000000 )  


     PseudoPot. # 1 for Pt read from file:
     ./Pt.rel-pbesol-n-nc.UPF
     MD5 check sum: 1ad8c16a3f6cfbc15730206407dd53f7
     Pseudo is Norm-conserving + core correction, Zval = 10.0
     Generated using "atomic" code by A. Dal Corso  v.5.0.99 svn rev. 10869
     Using radial grid of 1277 points,  4 beta functions with: 
                l(1) =   1
                l(2) =   1
                l(3) =   2
                l(4) =   2

     atomic species   valence    mass     pseudopotential
        Pt            10.00     1.00000     Pt( 1.00)

     48 Sym. Ops., with inversion, found


                                    s                        frac. trans.

      isym =  1     identity                                     

 cryst.   s( 1) = (     1          0          0      )
                  (     0          1          0      )
                  (     0          0          1      )

 cart.    s( 1) = (  1.0000000  0.0000000  0.0000000 )
                  (  0.0000000  1.0000000  0.0000000 )
                  (  0.0000000  0.0000000  1.0000000 )


      isym =  2     180 deg rotation - cart. axis [0,0,1]        

 cryst.   s( 2) = (     0          1         -1      )
                  (     1          0         -1      )
                  (     0          0         -1      )

 cart.    s( 2) = ( -1.0000000  0.0000000  0.0000000 )
                  (  0.0000000 -1.0000000  0.0000000 )
                  (  0.0000000  0.0000000  1.0000000 )


      isym =  3     180 deg rotation - cart. axis [0,1,0]        

 cryst.   s( 3) = (    -1          0          0      )
                  (    -1          0          1      )
                  (    -1          1          0      )

 cart.    s( 3) = ( -1.0000000  0.0000000  0.0000000 )
                  (  0.0000000  1.0000000  0.0000000 )
                  (  0.0000000  0.0000000 -1.0000000 )


      isym =  4     180 deg rotation - cart. axis [1,0,0]        

 cryst.   s( 4) = (     0         -1          1      )
                  (     0         -1          0      )
                  (     1         -1          0      )

 cart.    s( 4) = (  1.0000000  0.0000000  0.0000000 )
                  (  0.0000000 -1.0000000  0.0000000 )
                  (  0.0000000  0.0000000 -1.0000000 )


      isym =  5     180 deg rotation - cart. axis [1,1,0]        

 cryst.   s( 5) = (     0         -1          0      )
                  (    -1          0          0      )
                  (     0          0         -1      )

 cart.    s( 5) = (  0.0000000  1.0000000  0.0000000 )
                  (  1.0000000  0.0000000  0.0000000 )
                  (  0.0000000  0.0000000 -1.0000000 )


      isym =  6     180 deg rotation - cart. axis [1,-1,0]       

 cryst.   s( 6) = (    -1          0          1      )
                  (     0         -1          1      )
                  (     0          0          1      )

 cart.    s( 6) = (  0.0000000 -1.0000000  0.0000000 )
                  ( -1.0000000  0.0000000  0.0000000 )
                  (  0.0000000  0.0000000 -1.0000000 )


      isym =  7      90 deg rotation - cart. axis [0,0,-1]       

 cryst.   s( 7) = (     0          1          0      )
                  (     0          1         -1      )
                  (    -1          1          0      )

 cart.    s( 7) = (  0.0000000  1.0000000  0.0000000 )
                  ( -1.0000000  0.0000000  0.0000000 )
                  (  0.0000000  0.0000000  1.0000000 )


      isym =  8      90 deg rotation - cart. axis [0,0,1]        

 cryst.   s( 8) = (     1          0         -1      )
                  (     1          0          0      )
                  (     1         -1          0      )

 cart.    s( 8) = (  0.0000000 -1.0000000  0.0000000 )
                  (  1.0000000  0.0000000  0.0000000 )
                  (  0.0000000  0.0000000  1.0000000 )


      isym =  9     180 deg rotation - cart. axis [1,0,1]        

 cryst.   s( 9) = (    -1          0          0      )
                  (     0          0         -1      )
                  (     0         -1          0      )

 cart.    s( 9) = (  0.0000000  0.0000000  1.0000000 )
                  (  0.0000000 -1.0000000  0.0000000 )
                  (  1.0000000  0.0000000  0.0000000 )


      isym = 10     180 deg rotation - cart. axis [-1,0,1]       

 cryst.   s(10) = (     1          0          0      )
                  (     1         -1          0      )
                  (     1          0         -1      )

 cart.    s(10) = (  0.0000000  0.0000000 -1.0000000 )
                  (  0.0000000 -1.0000000  0.0000000 )
                  ( -1.0000000  0.0000000  0.0000000 )


      isym = 11      90 deg rotation - cart. axis [0,1,0]        

 cryst.   s(11) = (     0          1         -1      )
                  (    -1          1          0      )
                  (     0          1          0      )

 cart.    s(11) = (  0.0000000  0.0000000  1.0000000 )
                  (  0.0000000  1.0000000  0.0000000 )
                  ( -1.0000000  0.0000000  0.0000000 )


      isym = 12      90 deg rotation - cart. axis [0,-1,0]       

 cryst.   s(12) = (     0         -1          1      )
                  (     0          0          1      )
                  (    -1          0          1      )

 cart.    s(12) = (  0.0000000  0.0000000 -1.0000000 )
                  (  0.0000000  1.0000000  0.0000000 )
                  (  1.0000000  0.0000000  0.0000000 )


      isym = 13     180 deg rotation - cart. axis [0,1,1]        

 cryst.   s(13) = (    -1          1          0      )
                  (     0          1          0      )
                  (     0          1         -1      )

 cart.    s(13) = ( -1.0000000  0.0000000  0.0000000 )
                  (  0.0000000  0.0000000  1.0000000 )
                  (  0.0000000  1.0000000  0.0000000 )


      isym = 14     180 deg rotation - cart. axis [0,1,-1]       

 cryst.   s(14) = (     0          0         -1      )
                  (     0         -1          0      )
                  (    -1          0          0      )

 cart.    s(14) = ( -1.0000000  0.0000000  0.0000000 )
                  (  0.0000000  0.0000000 -1.0000000 )
                  (  0.0000000 -1.0000000  0.0000000 )


      isym = 15      90 deg rotation - cart. axis [-1,0,0]       

 cryst.   s(15) = (     0          0          1      )
                  (    -1          0          1      )
                  (     0         -1          1      )

 cart.    s(15) = (  1.0000000  0.0000000  0.0000000 )
                  (  0.0000000  0.0000000  1.0000000 )
                  (  0.0000000 -1.0000000  0.0000000 )


      isym = 16      90 deg rotation - cart. axis [1,0,0]        

 cryst.   s(16) = (     1         -1          0      )
                  (     1          0         -1      )
                  (     1          0          0      )

 cart.    s(16) = (  1.0000000  0.0000000  0.0000000 )
                  (  0.0000000  0.0000000 -1.0000000 )
                  (  0.0000000  1.0000000  0.0000000 )


      isym = 17     120 deg rotation - cart. axis [-1,-1,-1]     

 cryst.   s(17) = (    -1          0          1      )
                  (    -1          1          0      )
                  (    -1          0          0      )

 cart.    s(17) = (  0.0000000  1.0000000  0.0000000 )
                  (  0.0000000  0.0000000  1.0000000 )
                  (  1.0000000  0.0000000  0.0000000 )


      isym = 18     120 deg rotation - cart. axis [-1,1,1]       

 cryst.   s(18) = (     0          1          0      )
                  (     0          0          1      )
                  (     1          0          0      )

 cart.    s(18) = (  0.0000000 -1.0000000  0.0000000 )
                  (  0.0000000  0.0000000  1.0000000 )
                  ( -1.0000000  0.0000000  0.0000000 )


      isym = 19     120 deg rotation - cart. axis [1,1,-1]       

 cryst.   s(19) = (     1          0         -1      )
                  (     0          0         -1      )
                  (     0          1         -1      )

 cart.    s(19) = (  0.0000000  1.0000000  0.0000000 )
                  (  0.0000000  0.0000000 -1.0000000 )
                  ( -1.0000000  0.0000000  0.0000000 )


      isym = 20     120 deg rotation - cart. axis [1,-1,1]       

 cryst.   s(20) = (     0         -1          0      )
                  (     1         -1          0      )
                  (     0         -1          1      )

 cart.    s(20) = (  0.0000000 -1.0000000  0.0000000 )
                  (  0.0000000  0.0000000 -1.0000000 )
                  (  1.0000000  0.0000000  0.0000000 )


      isym = 21     120 deg rotation - cart. axis [1,1,1]        

 cryst.   s(21) = (     0          0         -1      )
                  (     0          1         -1      )
                  (     1          0         -1      )

 cart.    s(21) = (  0.0000000  0.0000000  1.0000000 )
                  (  1.0000000  0.0000000  0.0000000 )
                  (  0.0000000  1.0000000  0.0000000 )


      isym = 22     120 deg rotation - cart. axis [-1,1,-1]      

 cryst.   s(22) = (    -1          1          0      )
                  (    -1          0          0      )
                  (    -1          0          1      )

 cart.    s(22) = (  0.0000000  0.0000000  1.0000000 )
                  ( -1.0000000  0.0000000  0.0000000 )
                  (  0.0000000 -1.0000000  0.0000000 )


      isym = 23     120 deg rotation - cart. axis [1,-1,-1]      

 cryst.   s(23) = (     0          0          1      )
                  (     1          0          0      )
                  (     0          1          0      )

 cart.    s(23) = (  0.0000000  0.0000000 -1.0000000 )
                  ( -1.0000000  0.0000000  0.0000000 )
                  (  0.0000000  1.0000000  0.0000000 )


      isym = 24     120 deg rotation - cart. axis [-1,-1,1]      

 cryst.   s(24) = (     1         -1          0      )
                  (     0         -1          1      )
                  (     0         -1          0      )

 cart.    s(24) = (  0.0000000  0.0000000 -1.0000000 )
                  (  1.0000000  0.0000000  0.0000000 )
                  (  0.0000000 -1.0000000  0.0000000 )


      isym = 25     inversion                                    

 cryst.   s(25) = (    -1          0          0      )
                  (     0         -1          0      )
                  (     0          0         -1      )

 cart.    s(25) = ( -1.0000000  0.0000000  0.0000000 )
                  (  0.0000000 -1.0000000  0.0000000 )
                  (  0.0000000  0.0000000 -1.0000000 )


      isym = 26     inv. 180 deg rotation - cart. axis [0,0,1]   

 cryst.   s(26) = (     0         -1          1      )
                  (    -1          0          1      )
                  (     0          0          1      )

 cart.    s(26) = (  1.0000000  0.0000000  0.0000000 )
                  (  0.0000000  1.0000000  0.0000000 )
                  (  0.0000000  0.0000000 -1.0000000 )


      isym = 27     inv. 180 deg rotation - cart. axis [0,1,0]   

 cryst.   s(27) = (     1          0          0      )
                  (     1          0         -1      )
                  (     1         -1          0      )

 cart.    s(27) = (  1.0000000  0.0000000  0.0000000 )
                  (  0.0000000 -1.0000000  0.0000000 )
                  (  0.0000000  0.0000000  1.0000000 )


      isym = 28     inv. 180 deg rotation - cart. axis [1,0,0]   

 cryst.   s(28) = (     0          1         -1      )
                  (     0          1          0      )
                  (    -1          1          0      )

 cart.    s(28) = ( -1.0000000  0.0000000  0.0000000 )
                  (  0.0000000  1.0000000  0.0000000 )
                  (  0.0000000  0.0000000  1.0000000 )


      isym = 29     inv. 180 deg rotation - cart. axis [1,1,0]   

 cryst.   s(29) = (     0          1          0      )
                  (     1          0          0      )
                  (     0          0          1      )

 cart.    s(29) = (  0.0000000 -1.0000000  0.0000000 )
                  ( -1.0000000  0.0000000  0.0000000 )
                  (  0.0000000  0.0000000  1.0000000 )


      isym = 30     inv. 180 deg rotation - cart. axis [1,-1,0]  

 cryst.   s(30) = (     1          0         -1      )
                  (     0          1         -1      )
                  (     0          0         -1      )

 cart.    s(30) = (  0.0000000  1.0000000  0.0000000 )
                  (  1.0000000  0.0000000  0.0000000 )
                  (  0.0000000  0.0000000  1.0000000 )


      isym = 31     inv.  90 deg rotation - cart. axis [0,0,-1]  

 cryst.   s(31) = (     0         -1          0      )
                  (     0         -1          1      )
                  (     1         -1          0      )

 cart.    s(31) = (  0.0000000 -1.0000000  0.0000000 )
                  (  1.0000000  0.0000000  0.0000000 )
                  (  0.0000000  0.0000000 -1.0000000 )


      isym = 32     inv.  90 deg rotation - cart. axis [0,0,1]   

 cryst.   s(32) = (    -1          0          1      )
                  (    -1          0          0      )
                  (    -1          1          0      )

 cart.    s(32) = (  0.0000000  1.0000000  0.0000000 )
                  ( -1.0000000  0.0000000  0.0000000 )
                  (  0.0000000  0.0000000 -1.0000000 )


      isym = 33     inv. 180 deg rotation - cart. axis [1,0,1]   

 cryst.   s(33) = (     1          0          0      )
                  (     0          0          1      )
                  (     0          1          0      )

 cart.    s(33) = (  0.0000000  0.0000000 -1.0000000 )
                  (  0.0000000  1.0000000  0.0000000 )
                  ( -1.0000000  0.0000000  0.0000000 )


      isym = 34     inv. 180 deg rotation - cart. axis [-1,0,1]  

 cryst.   s(34) = (    -1          0          0      )
                  (    -1          1          0      )
                  (    -1          0          1      )

 cart.    s(34) = (  0.0000000  0.0000000  1.0000000 )
                  (  0.0000000  1.0000000  0.0000000 )
                  (  1.0000000  0.0000000  0.0000000 )


      isym = 35     inv.  90 deg rotation - cart. axis [0,1,0]   

 cryst.   s(35) = (     0         -1          1      )
                  (     1         -1          0      )
                  (     0         -1          0      )

 cart.    s(35) = (  0.0000000  0.0000000 -1.0000000 )
                  (  0.0000000 -1.0000000  0.0000000 )
                  (  1.0000000  0.0000000  0.0000000 )


      isym = 36     inv.  90 deg rotation - cart. axis [0,-1,0]  

 cryst.   s(36) = (     0          1         -1      )
                  (     0          0         -1      )
                  (     1          0         -1      )

 cart.    s(36) = (  0.0000000  0.0000000  1.0000000 )
                  (  0.0000000 -1.0000000  0.0000000 )
                  ( -1.0000000  0.0000000  0.0000000 )


      isym = 37     inv. 180 deg rotation - cart. axis [0,1,1]   

 cryst.   s(37) = (     1         -1          0      )
                  (     0         -1          0      )
                  (     0         -1          1      )

 cart.    s(37) = (  1.0000000  0.0000000  0.0000000 )
                  (  0.0000000  0.0000000 -1.0000000 )
                  (  0.0000000 -1.0000000  0.0000000 )


      isym = 38     inv. 180 deg rotation - cart. axis [0,1,-1]  

 cryst.   s(38) = (     0          0          1      )
                  (     0          1          0      )
                  (     1          0          0      )

 cart.    s(38) = (  1.0000000  0.0000000  0.0000000 )
                  (  0.0000000  0.0000000  1.0000000 )
                  (  0.0000000  1.0000000  0.0000000 )


      isym = 39     inv.  90 deg rotation - cart. axis [-1,0,0]  

 cryst.   s(39) = (     0          0         -1      )
                  (     1          0         -1      )
                  (     0          1         -1      )

 cart.    s(39) = ( -1.0000000  0.0000000  0.0000000 )
                  (  0.0000000  0.0000000 -1.0000000 )
                  (  0.0000000  1.0000000  0.0000000 )


      isym = 40     inv.  90 deg rotation - cart. axis [1,0,0]   

 cryst.   s(40) = (    -1          1          0      )
                  (    -1          0          1      )
                  (    -1          0          0      )

 cart.    s(40) = ( -1.0000000  0.0000000  0.0000000 )
                  (  0.0000000  0.0000000  1.0000000 )
                  (  0.0000000 -1.0000000  0.0000000 )


      isym = 41     inv. 120 deg rotation - cart. axis [-1,-1,-1]

 cryst.   s(41) = (     1          0         -1      )
                  (     1         -1          0      )
                  (     1          0          0      )

 cart.    s(41) = (  0.0000000 -1.0000000  0.0000000 )
                  (  0.0000000  0.0000000 -1.0000000 )
                  ( -1.0000000  0.0000000  0.0000000 )


      isym = 42     inv. 120 deg rotation - cart. axis [-1,1,1]  

 cryst.   s(42) = (     0         -1          0      )
                  (     0          0         -1      )
                  (    -1          0          0      )

 cart.    s(42) = (  0.0000000  1.0000000  0.0000000 )
                  (  0.0000000  0.0000000 -1.0000000 )
                  (  1.0000000  0.0000000  0.0000000 )


      isym = 43     inv. 120 deg rotation - cart. axis [1,1,-1]  

 cryst.   s(43) = (    -1          0          1      )
                  (     0          0          1      )
                  (     0         -1          1      )

 cart.    s(43) = (  0.0000000 -1.0000000  0.0000000 )
                  (  0.0000000  0.0000000  1.0000000 )
                  (  1.0000000  0.0000000  0.0000000 )


      isym = 44     inv. 120 deg rotation - cart. axis [1,-1,1]  

 cryst.   s(44) = (     0          1          0      )
                  (    -1          1          0      )
                  (     0          1         -1      )

 cart.    s(44) = (  0.0000000  1.0000000  0.0000000 )
                  (  0.0000000  0.0000000  1.0000000 )
                  ( -1.0000000  0.0000000  0.0000000 )


      isym = 45     inv. 120 deg rotation - cart. axis [1,1,1]   

 cryst.   s(45) = (     0          0          1      )
                  (     0         -1          1      )
                  (    -1          0          1      )

 cart.    s(45) = (  0.0000000  0.0000000 -1.0000000 )
                  ( -1.0000000  0.0000000  0.0000000 )
                  (  0.0000000 -1.0000000  0.0000000 )


      isym = 46     inv. 120 deg rotation - cart. axis [-1,1,-1] 

 cryst.   s(46) = (     1         -1          0      )
                  (     1          0          0      )
                  (     1          0         -1      )

 cart.    s(46) = (  0.0000000  0.0000000 -1.0000000 )
                  (  1.0000000  0.0000000  0.0000000 )
                  (  0.0000000  1.0000000  0.0000000 )


      isym = 47     inv. 120 deg rotation - cart. axis [1,-1,-1] 

 cryst.   s(47) = (     0          0         -1      )
                  (    -1          0          0      )
                  (     0         -1          0      )

 cart.    s(47) = (  0.0000000  0.0000000  1.0000000 )
                  (  1.0000000  0.0000000  0.0000000 )
                  (  0.0000000 -1.0000000  0.0000000 )


      isym = 48     inv. 120 deg rotation - cart. axis [-1,-1,1] 

 cryst.   s(48) = (    -1          1          0      )
                  (     0          1         -1      )
                  (     0          1          0      )

 cart.    s(48) = (  0.0000000  0.0000000  1.0000000 )
                  ( -1.0000000  0.0000000  0.0000000 )
                  (  0.0000000  1.0000000  0.0000000 )


     double point group O_h (m-3m) 
     there are 16 classes and  6 irreducible representations
     the character table:

       E     -E    8C3   -8C3   3C2  6C4   -6C4   6C2' i     -i    8S6   -8S6 
                               -3C2              -6C2'                        
G_6+   2.00 -2.00  1.00 -1.00  0.00  1.41 -1.41  0.00  2.00 -2.00  1.00 -1.00
G_7+   2.00 -2.00  1.00 -1.00  0.00 -1.41  1.41  0.00  2.00 -2.00  1.00 -1.00
G_8+   4.00 -4.00 -1.00  1.00  0.00  0.00  0.00  0.00  4.00 -4.00 -1.00  1.00
G_6-   2.00 -2.00  1.00 -1.00  0.00  1.41 -1.41  0.00 -2.00  2.00 -1.00  1.00
G_7-   2.00 -2.00  1.00 -1.00  0.00 -1.41  1.41  0.00 -2.00  2.00 -1.00  1.00
G_8-   4.00 -4.00 -1.00  1.00  0.00  0.00  0.00  0.00 -4.00  4.00  1.00 -1.00

        3s_h 6S4   -6S4   6s_d
       -3s_h             -6s_d
G_6+   0.00  1.41 -1.41  0.00
G_7+   0.00 -1.41  1.41  0.00
G_8+   0.00  0.00  0.00  0.00
G_6-   0.00 -1.41  1.41  0.00
G_7-   0.00  1.41 -1.41  0.00
G_8-   0.00  0.00  0.00  0.00

     the symmetry operations in each class and the name of the first element:

     E             1
          identity                                               
     -E           -1
          identity E                                             
     8C3          17   19   20   18   24   21   22   23
          120 deg rotation - cart. axis [-1,-1,-1]               
     -8C3        -17  -19  -20  -18  -24  -21  -22  -23
          120 deg rotation - cart. axis [-1,-1,-1] E             
      3C2 -3C2     2   -2    4   -4    3   -3
          180 deg rotation - cart. axis [0,0,1]                  
     6C4           7    8   15   16   12   11
           90 deg rotation - cart. axis [0,0,-1]                 
     -6C4         -7   -8  -15  -16  -12  -11
           90 deg rotation - cart. axis [0,0,-1] E               
      6C2'-6C2'    5   -5   -6    6   14  -13  -14   13   10   -9  -10    9
          180 deg rotation - cart. axis [1,1,0]                  
     i            25
          inversion                                              
     -i          -25
          inversion E                                            
     8S6          41   43   44   42   48   45   46   47
          inv. 120 deg rotation - cart. axis [-1,-1,-1]          
     -8S6        -41  -43  -44  -42  -48  -45  -46  -47
          inv. 120 deg rotation - cart. axis [-1,-1,-1] E        
      3s_h-3s_h   26  -26   28  -28   27  -27
          inv. 180 deg rotation - cart. axis [0,0,1]             
     6S4          31   32   39   40   36   35
          inv.  90 deg rotation - cart. axis [0,0,-1]            
     -6S4        -31  -32  -39  -40  -36  -35
          inv.  90 deg rotation - cart. axis [0,0,-1] E          
      6s_d-6s_d   29  -29  -30   30   38  -37  -38   37   34  -33  -34   33
          inv. 180 deg rotation - cart. axis [1,1,0]             

   Cartesian axes

     site n.     atom                  positions (alat units)
         1           Pt  tau(   1) = (   0.0000000   0.0000000   0.0000000  )

   Crystallographic axes

     site n.     atom                  positions (cryst. coord.)
         1           Pt  tau(   1) = (  0.0000000  0.0000000  0.0000000  )

     number of k points=    64  Gaussian smearing, width (Ry)=  0.0300
                       cart. coord. in units 2pi/alat
        k(    1) = (   0.0000000   0.0000000   0.0000000), wk =   0.0156250
        k(    2) = (  -0.2500000   0.2500000  -0.2500000), wk =   0.0156250
        k(    3) = (  -0.5000000   0.5000000  -0.5000000), wk =   0.0156250
        k(    4) = (  -0.7500000   0.7500000  -0.7500000), wk =   0.0156250
        k(    5) = (   0.2500000   0.2500000   0.2500000), wk =   0.0156250
        k(    6) = (   0.0000000   0.5000000   0.0000000), wk =   0.0156250
        k(    7) = (  -0.2500000   0.7500000  -0.2500000), wk =   0.0156250
        k(    8) = (  -0.5000000   1.0000000  -0.5000000), wk =   0.0156250
        k(    9) = (   0.5000000   0.5000000   0.5000000), wk =   0.0156250
        k(   10) = (   0.2500000   0.7500000   0.2500000), wk =   0.0156250
        k(   11) = (   0.0000000   1.0000000   0.0000000), wk =   0.0156250
        k(   12) = (  -0.2500000   1.2500000  -0.2500000), wk =   0.0156250
        k(   13) = (   0.7500000   0.7500000   0.7500000), wk =   0.0156250
        k(   14) = (   0.5000000   1.0000000   0.5000000), wk =   0.0156250
        k(   15) = (   0.2500000   1.2500000   0.2500000), wk =   0.0156250
        k(   16) = (   0.0000000   1.5000000   0.0000000), wk =   0.0156250
        k(   17) = (  -0.2500000  -0.2500000   0.2500000), wk =   0.0156250
        k(   18) = (  -0.5000000   0.0000000   0.0000000), wk =   0.0156250
        k(   19) = (  -0.7500000   0.2500000  -0.2500000), wk =   0.0156250
        k(   20) = (  -1.0000000   0.5000000  -0.5000000), wk =   0.0156250
        k(   21) = (   0.0000000   0.0000000   0.5000000), wk =   0.0156250
        k(   22) = (  -0.2500000   0.2500000   0.2500000), wk =   0.0156250
        k(   23) = (  -0.5000000   0.5000000   0.0000000), wk =   0.0156250
        k(   24) = (  -0.7500000   0.7500000  -0.2500000), wk =   0.0156250
        k(   25) = (   0.2500000   0.2500000   0.7500000), wk =   0.0156250
        k(   26) = (   0.0000000   0.5000000   0.5000000), wk =   0.0156250
        k(   27) = (  -0.2500000   0.7500000   0.2500000), wk =   0.0156250
        k(   28) = (  -0.5000000   1.0000000   0.0000000), wk =   0.0156250
        k(   29) = (   0.5000000   0.5000000   1.0000000), wk =   0.0156250
        k(   30) = (   0.2500000   0.7500000   0.7500000), wk =   0.0156250
        k(   31) = (   0.0000000   1.0000000   0.5000000), wk =   0.0156250
        k(   32) = (  -0.2500000   1.2500000   0.2500000), wk =   0.0156250
        k(   33) = (  -0.5000000  -0.5000000   0.5000000), wk =   0.0156250
        k(   34) = (  -0.7500000  -0.2500000   0.2500000), wk =   0.0156250
        k(   35) = (  -1.0000000   0.0000000   0.0000000), wk =   0.0156250
        k(   36) = (  -1.2500000   0.2500000  -0.2500000), wk =   0.0156250
        k(   37) = (  -0.2500000  -0.2500000   0.7500000), wk =   0.0156250
        k(   38) = (  -0.5000000   0.0000000   0.5000000), wk =   0.0156250
        k(   39) = (  -0.7500000   0.2500000   0.2500000), wk =   0.0156250
        k(   40) = (  -1.0000000   0.5000000   0.0000000), wk =   0.0156250
        k(   41) = (   0.0000000   0.0000000   1.0000000), wk =   0.0156250
        k(   42) = (  -0.2500000   0.2500000   0.7500000), wk =   0.0156250
        k(   43) = (  -0.5000000   0.5000000   0.5000000), wk =   0.0156250
        k(   44) = (  -0.7500000   0.7500000   0.2500000), wk =   0.0156250
        k(   45) = (   0.2500000   0.2500000   1.2500000), wk =   0.0156250
        k(   46) = (   0.0000000   0.5000000   1.0000000), wk =   0.0156250
        k(   47) = (  -0.2500000   0.7500000   0.7500000), wk =   0.0156250
        k(   48) = (  -0.5000000   1.0000000   0.5000000), wk =   0.0156250
        k(   49) = (  -0.7500000  -0.7500000   0.7500000), wk =   0.0156250
        k(   50) = (  -1.0000000  -0.5000000   0.5000000), wk =   0.0156250
        k(   51) = (  -1.2500000  -0.2500000   0.2500000), wk =   0.0156250
        k(   52) = (  -1.5000000   0.0000000   0.0000000), wk =   0.0156250
        k(   53) = (  -0.5000000  -0.5000000   1.0000000), wk =   0.0156250
        k(   54) = (  -0.7500000  -0.2500000   0.7500000), wk =   0.0156250
        k(   55) = (  -1.0000000   0.0000000   0.5000000), wk =   0.0156250
        k(   56) = (  -1.2500000   0.2500000   0.2500000), wk =   0.0156250
        k(   57) = (  -0.2500000  -0.2500000   1.2500000), wk =   0.0156250
        k(   58) = (  -0.5000000   0.0000000   1.0000000), wk =   0.0156250
        k(   59) = (  -0.7500000   0.2500000   0.7500000), wk =   0.0156250
        k(   60) = (  -1.0000000   0.5000000   0.5000000), wk =   0.0156250
        k(   61) = (   0.0000000   0.0000000   1.5000000), wk =   0.0156250
        k(   62) = (  -0.2500000   0.2500000   1.2500000), wk =   0.0156250
        k(   63) = (  -0.5000000   0.5000000   1.0000000), wk =   0.0156250
        k(   64) = (  -0.7500000   0.7500000   0.7500000), wk =   0.0156250

                       cryst. coord.
        k(    1) = (   0.0000000   0.0000000   0.0000000), wk =   0.0156250
        k(    2) = (   0.0000000   0.0000000   0.2500000), wk =   0.0156250
        k(    3) = (   0.0000000   0.0000000   0.5000000), wk =   0.0156250
        k(    4) = (   0.0000000   0.0000000   0.7500000), wk =   0.0156250
        k(    5) = (   0.0000000   0.2500000   0.0000000), wk =   0.0156250
        k(    6) = (   0.0000000   0.2500000   0.2500000), wk =   0.0156250
        k(    7) = (   0.0000000   0.2500000   0.5000000), wk =   0.0156250
        k(    8) = (   0.0000000   0.2500000   0.7500000), wk =   0.0156250
        k(    9) = (   0.0000000   0.5000000   0.0000000), wk =   0.0156250
        k(   10) = (   0.0000000   0.5000000   0.2500000), wk =   0.0156250
        k(   11) = (   0.0000000   0.5000000   0.5000000), wk =   0.0156250
        k(   12) = (   0.0000000   0.5000000   0.7500000), wk =   0.0156250
        k(   13) = (   0.0000000   0.7500000   0.0000000), wk =   0.0156250
        k(   14) = (   0.0000000   0.7500000   0.2500000), wk =   0.0156250
        k(   15) = (   0.0000000   0.7500000   0.5000000), wk =   0.0156250
        k(   16) = (   0.0000000   0.7500000   0.7500000), wk =   0.0156250
        k(   17) = (   0.2500000   0.0000000   0.0000000), wk =   0.0156250
        k(   18) = (   0.2500000   0.0000000   0.2500000), wk =   0.0156250
        k(   19) = (   0.2500000   0.0000000   0.5000000), wk =   0.0156250
        k(   20) = (   0.2500000   0.0000000   0.7500000), wk =   0.0156250
        k(   21) = (   0.2500000   0.2500000   0.0000000), wk =   0.0156250
        k(   22) = (   0.2500000   0.2500000   0.2500000), wk =   0.0156250
        k(   23) = (   0.2500000   0.2500000   0.5000000), wk =   0.0156250
        k(   24) = (   0.2500000   0.2500000   0.7500000), wk =   0.0156250
        k(   25) = (   0.2500000   0.5000000   0.0000000), wk =   0.0156250
        k(   26) = (   0.2500000   0.5000000   0.2500000), wk =   0.0156250
        k(   27) = (   0.2500000   0.5000000   0.5000000), wk =   0.0156250
        k(   28) = (   0.2500000   0.5000000   0.7500000), wk =   0.0156250
        k(   29) = (   0.2500000   0.7500000   0.0000000), wk =   0.0156250
        k(   30) = (   0.2500000   0.7500000   0.2500000), wk =   0.0156250
        k(   31) = (   0.2500000   0.7500000   0.5000000), wk =   0.0156250
        k(   32) = (   0.2500000   0.7500000   0.7500000), wk =   0.0156250
        k(   33) = (   0.5000000   0.0000000   0.0000000), wk =   0.0156250
        k(   34) = (   0.5000000   0.0000000   0.2500000), wk =   0.0156250
        k(   35) = (   0.5000000   0.0000000   0.5000000), wk =   0.0156250
        k(   36) = (   0.5000000   0.0000000   0.7500000), wk =   0.0156250
        k(   37) = (   0.5000000   0.2500000   0.0000000), wk =   0.0156250
        k(   38) = (   0.5000000   0.2500000   0.2500000), wk =   0.0156250
        k(   39) = (   0.5000000   0.2500000   0.5000000), wk =   0.0156250
        k(   40) = (   0.5000000   0.2500000   0.7500000), wk =   0.0156250
        k(   41) = (   0.5000000   0.5000000   0.0000000), wk =   0.0156250
        k(   42) = (   0.5000000   0.5000000   0.2500000), wk =   0.0156250
        k(   43) = (   0.5000000   0.5000000   0.5000000), wk =   0.0156250
        k(   44) = (   0.5000000   0.5000000   0.7500000), wk =   0.0156250
        k(   45) = (   0.5000000   0.7500000   0.0000000), wk =   0.0156250
        k(   46) = (   0.5000000   0.7500000   0.2500000), wk =   0.0156250
        k(   47) = (   0.5000000   0.7500000   0.5000000), wk =   0.0156250
        k(   48) = (   0.5000000   0.7500000   0.7500000), wk =   0.0156250
        k(   49) = (   0.7500000   0.0000000   0.0000000), wk =   0.0156250
        k(   50) = (   0.7500000   0.0000000   0.2500000), wk =   0.0156250
        k(   51) = (   0.7500000   0.0000000   0.5000000), wk =   0.0156250
        k(   52) = (   0.7500000   0.0000000   0.7500000), wk =   0.0156250
        k(   53) = (   0.7500000   0.2500000   0.0000000), wk =   0.0156250
        k(   54) = (   0.7500000   0.2500000   0.2500000), wk =   0.0156250
        k(   55) = (   0.7500000   0.2500000   0.5000000), wk =   0.0156250
        k(   56) = (   0.7500000   0.2500000   0.7500000), wk =   0.0156250
        k(   57) = (   0.7500000   0.5000000   0.0000000), wk =   0.0156250
        k(   58) = (   0.7500000   0.5000000   0.2500000), wk =   0.0156250
        k(   59) = (   0.7500000   0.5000000   0.5000000), wk =   0.0156250
        k(   60) = (   0.7500000   0.5000000   0.7500000), wk =   0.0156250
        k(   61) = (   0.7500000   0.7500000   0.0000000), wk =   0.0156250
        k(   62) = (   0.7500000   0.7500000   0.2500000), wk =   0.0156250
        k(   63) = (   0.7500000   0.7500000   0.5000000), wk =   0.0156250
        k(   64) = (   0.7500000   0.7500000   0.7500000), wk =   0.0156250

     Dense  grid:     6375 G-vectors     FFT dimensions: (  25,  25,  25)

     Dynamical RAM for                 wfc:       0.15 MB

     Dynamical RAM for     wfc (w. buffer):       0.15 MB

     Dynamical RAM for           str. fact:       0.02 MB

     Dynamical RAM for           local pot:       0.00 MB

     Dynamical RAM for          nlocal pot:       0.05 MB

     Dynamical RAM for                qrad:       0.59 MB

     Dynamical RAM for          rho,v,vnew:       0.69 MB

     Dynamical RAM for           G-vectors:       0.10 MB

     Dynamical RAM for          h,s,v(r/c):       0.11 MB

     Dynamical RAM for          <psi|beta>:       0.01 MB

     Dynamical RAM for                 psi:       0.29 MB

     Dynamical RAM for                hpsi:       0.29 MB

     Dynamical RAM for      wfcinit/wfcrot:       0.23 MB

     Estimated static dynamical RAM per process >       1.92 MB

     Estimated max dynamical RAM per process >       2.62 MB

     Estimated total dynamical RAM >     157.13 MB

     The potential is recalculated from file :
     ./temp/Pt.save/charge-density

     Starting wfcs are   18 randomized atomic wfcs +    6 random wfcs

     Band Structure Calculation
     Davidson diagonalization with overlap

     Computing kpt #:     1  of     5 on this pool
     total cpu time spent up to now is        0.5 secs

     Computing kpt #:     2  of     5 on this pool
     total cpu time spent up to now is        0.7 secs

     Computing kpt #:     3  of     5 on this pool
     total cpu time spent up to now is        0.8 secs

     Computing kpt #:     4  of     5 on this pool
     total cpu time spent up to now is        1.0 secs

     Computing kpt #:     5  of     5 on this pool
     total cpu time spent up to now is        1.2 secs

     ethr =  1.00E-12,  avg # of iterations = 43.7

     total cpu time spent up to now is        1.2 secs

     End of band structure calculation

          k = 0.0000 0.0000 0.0000 (   821 PWs)   bands (ev):

     7.6406   7.6406  13.6964  13.6964  13.6964  13.6964  14.6840  14.6840
    16.5491  16.5491  16.5491  16.5491  35.3046  35.3046  38.9217  38.9217
    40.0851  40.0851  40.0851  40.0851  43.3217  43.3217  49.3937  49.3937

          k =-0.2500 0.2500-0.2500 (   797 PWs)   bands (ev):

     9.6977   9.6977  13.6365  13.6365  13.8846  13.8846  15.0798  15.0798
    16.4033  16.4033  16.9969  16.9969  31.9270  31.9270  36.6562  36.6562
    40.5576  40.5576  41.9865  41.9865  43.1494  43.1494  45.8813  45.8813

          k =-0.5000 0.5000-0.5000 (   796 PWs)   bands (ev):

    10.5549  10.5549  13.5349  13.5349  14.5452  14.5452  17.3782  17.3782
    17.7959  17.7959  18.4560  18.4560  24.1175  24.1175  34.3175  34.3175
    37.4761  37.4761  39.0146  39.0146  48.2259  48.2259  48.7639  48.7639

          k =-0.7500 0.7500-0.7500 (   797 PWs)   bands (ev):

     9.6977   9.6977  13.6365  13.6365  13.8846  13.8846  15.0798  15.0798
    16.4033  16.4033  16.9969  16.9969  31.9270  31.9270  36.6562  36.6562
    40.5576  40.5576  41.9865  41.9865  43.1494  43.1494  45.8813  45.8813

          k = 0.2500 0.2500 0.2500 (   797 PWs)   bands (ev):

     9.6977   9.6977  13.6365  13.6365  13.8846  13.8846  15.0798  15.0798
    16.4033  16.4033  16.9969  16.9969  31.9270  31.9270  36.6562  36.6562
    40.5576  40.5576  41.9865  41.9865  43.1494  43.1494  45.8813  45.8813

          k = 0.0000 0.5000 0.0000 (   817 PWs)   bands (ev):

    10.4026  10.4026  12.4605  12.4605  14.5121  14.5121  16.0056  16.0056
    16.0860  16.0860  17.3634  17.3634  34.6487  34.6487  36.5688  36.5688
    37.1314  37.1314  38.7363  38.7363  39.5147  39.5147  48.6354  48.6354

          k =-0.2500 0.7500-0.2500 (   788 PWs)   bands (ev):

    11.6081  11.6081  12.7290  12.7290  14.2819  14.2819  15.9152  15.9152
    18.2594  18.2594  21.2031  21.2031  25.6573  25.6573  32.5347  32.5347
    34.5231  34.5231  38.4141  38.4141  46.6449  46.6449  49.8766  49.8766

          k =-0.5000 1.0000-0.5000 (   792 PWs)   bands (ev):

    12.0321  12.0321  13.1314  13.1314  13.6122  13.6122  15.4214  15.4214
    16.4606  16.4606  20.0577  20.0577  29.0517  29.0517  31.4058  31.4058
    37.5996  37.5996  39.9705  39.9705  43.4118  43.4118  50.2514  50.2514

          k = 0.5000 0.5000 0.5000 (   796 PWs)   bands (ev):

    10.5549  10.5549  13.5349  13.5349  14.5452  14.5452  17.3782  17.3782
    17.7959  17.7959  18.4560  18.4560  24.1175  24.1175  34.3175  34.3175
    37.4761  37.4761  39.0146  39.0146  48.2259  48.2259  48.7639  48.7639

          k = 0.2500 0.7500 0.2500 (   788 PWs)   bands (ev):

    11.6081  11.6081  12.7290  12.7290  14.2819  14.2819  15.9152  15.9152
    18.2594  18.2594  21.2031  21.2031  25.6573  25.6573  32.5347  32.5347
    34.5231  34.5231  38.4141  38.4141  46.6449  46.6449  49.8766  49.8766

          k = 0.0000 1.0000 0.0000 (   790 PWs)   bands (ev):

    10.7986  10.7986  11.2408  11.2408  17.8675  17.8675  18.1955  18.1955
    19.1754  19.1754  19.6306  19.6306  27.1106  27.1106  29.2988  29.2988
    30.7982  30.7982  38.8652  38.8652  43.4714  43.4714  53.3439  53.3439

          k =-0.2500 1.2500-0.2500 (   788 PWs)   bands (ev):

    11.6081  11.6081  12.7290  12.7290  14.2819  14.2819  15.9152  15.9152
    18.2594  18.2594  21.2031  21.2031  25.6573  25.6573  32.5347  32.5347
    34.5231  34.5231  38.4141  38.4141  46.6449  46.6449  49.8766  49.8766

          k = 0.7500 0.7500 0.7500 (   797 PWs)   bands (ev):

     9.6977   9.6977  13.6365  13.6365  13.8846  13.8846  15.0798  15.0798
    16.4033  16.4033  16.9969  16.9969  31.9270  31.9270  36.6562  36.6562
    40.5576  40.5576  41.9865  41.9865  43.1494  43.1494  45.8813  45.8813

          k = 0.5000 1.0000 0.5000 (   792 PWs)   bands (ev):

    12.0321  12.0321  13.1314  13.1314  13.6122  13.6122  15.4214  15.4214
    16.4606  16.4606  20.0577  20.0577  29.0517  29.0517  31.4058  31.4058
    37.5996  37.5996  39.9705  39.9705  43.4118  43.4118  50.2514  50.2514

          k = 0.2500 1.2500 0.2500 (   788 PWs)   bands (ev):

    11.6081  11.6081  12.7290  12.7290  14.2819  14.2819  15.9152  15.9152
    18.2594  18.2594  21.2031  21.2031  25.6573  25.6573  32.5347  32.5347
    34.5231  34.5231  38.4141  38.4141  46.6449  46.6449  49.8766  49.8766

          k = 0.0000 1.5000 0.0000 (   817 PWs)   bands (ev):

    10.4026  10.4026  12.4605  12.4605  14.5121  14.5121  16.0056  16.0056
    16.0860  16.0860  17.3634  17.3634  34.6487  34.6487  36.5688  36.5688
    37.1314  37.1314  38.7363  38.7363  39.5147  39.5147  48.6354  48.6354

          k =-0.2500-0.2500 0.2500 (   797 PWs)   bands (ev):

     9.6977   9.6977  13.6365  13.6365  13.8846  13.8846  15.0798  15.0798
    16.4033  16.4033  16.9969  16.9969  31.9270  31.9270  36.6562  36.6562
    40.5576  40.5576  41.9865  41.9865  43.1494  43.1494  45.8813  45.8813

          k =-0.5000 0.0000 0.0000 (   817 PWs)   bands (ev):

    10.4026  10.4026  12.4605  12.4605  14.5121  14.5121  16.0056  16.0056
    16.0860  16.0860  17.3634  17.3634  34.6487  34.6487  36.5688  36.5688
    37.1314  37.1314  38.7363  38.7363  39.5147  39.5147  48.6354  48.6354

          k =-0.7500 0.2500-0.2500 (   788 PWs)   bands (ev):

    11.6081  11.6081  12.7290  12.7290  14.2819  14.2819  15.9152  15.9152
    18.2594  18.2594  21.2031  21.2031  25.6573  25.6573  32.5347  32.5347
    34.5231  34.5231  38.4141  38.4141  46.6449  46.6449  49.8766  49.8766

          k =-1.0000 0.5000-0.5000 (   792 PWs)   bands (ev):

    12.0321  12.0321  13.1314  13.1314  13.6122  13.6122  15.4214  15.4214
    16.4606  16.4606  20.0577  20.0577  29.0517  29.0517  31.4058  31.4058
    37.5996  37.5996  39.9705  39.9705  43.4118  43.4118  50.2514  50.2514

          k = 0.0000 0.0000 0.5000 (   817 PWs)   bands (ev):

    10.4026  10.4026  12.4605  12.4605  14.5121  14.5121  16.0056  16.0056
    16.0860  16.0860  17.3634  17.3634  34.6487  34.6487  36.5688  36.5688
    37.1314  37.1314  38.7363  38.7363  39.5147  39.5147  48.6354  48.6354

          k =-0.2500 0.2500 0.2500 (   797 PWs)   bands (ev):

     9.6977   9.6977  13.6365  13.6365  13.8846  13.8846  15.0798  15.0798
    16.4033  16.4033  16.9969  16.9969  31.9270  31.9270  36.6562  36.6562
    40.5576  40.5576  41.9865  41.9865  43.1494  43.1494  45.8813  45.8813

          k =-0.5000 0.5000 0.0000 (   792 PWs)   bands (ev):

    12.0321  12.0321  13.1314  13.1314  13.6122  13.6122  15.4214  15.4214
    16.4606  16.4606  20.0577  20.0577  29.0517  29.0517  31.4058  31.4058
    37.5996  37.5996  39.9705  39.9705  43.4118  43.4118  50.2514  50.2514

          k =-0.7500 0.7500-0.2500 (   788 PWs)   bands (ev):

    11.6081  11.6081  12.7290  12.7290  14.2819  14.2819  15.9152  15.9152
    18.2594  18.2594  21.2031  21.2031  25.6573  25.6573  32.5347  32.5347
    34.5231  34.5231  38.4141  38.4141  46.6449  46.6449  49.8766  49.8766

          k = 0.2500 0.2500 0.7500 (   788 PWs)   bands (ev):

    11.6081  11.6081  12.7290  12.7290  14.2819  14.2819  15.9152  15.9152
    18.2594  18.2594  21.2031  21.2031  25.6573  25.6573  32.5347  32.5347
    34.5231  34.5231  38.4141  38.4141  46.6449  46.6449  49.8766  49.8766

          k = 0.0000 0.5000 0.5000 (   792 PWs)   bands (ev):

    12.0321  12.0321  13.1314  13.1314  13.6122  13.6122  15.4214  15.4214
    16.4606  16.4606  20.0577  20.0577  29.0517  29.0517  31.4058  31.4058
    37.5996  37.5996  39.9705  39.9705  43.4118  43.4118  50.2514  50.2514

          k =-0.2500 0.7500 0.2500 (   788 PWs)   bands (ev):

    11.6081  11.6081  12.7290  12.7290  14.2819  14.2819  15.9152  15.9152
    18.2594  18.2594  21.2031  21.2031  25.6573  25.6573  32.5347  32.5347
    34.5231  34.5231  38.4141  38.4141  46.6449  46.6449  49.8766  49.8766

          k =-0.5000 1.0000 0.0000 (   772 PWs)   bands (ev):

    12.1773  12.1773  13.1530  13.1530  13.4106  13.4106  16.1362  16.1362
    18.6049  18.6049  25.4238  25.4238  25.8096  25.8096  27.2198  27.2198
    30.6771  30.6771  45.1672  45.1672  45.7527  45.7527  45.9457  45.9457

          k = 0.5000 0.5000 1.0000 (   792 PWs)   bands (ev):

    12.0321  12.0321  13.1314  13.1314  13.6122  13.6122  15.4214  15.4214
    16.4606  16.4606  20.0577  20.0577  29.0517  29.0517  31.4058  31.4058
    37.5996  37.5996  39.9705  39.9705  43.4118  43.4118  50.2514  50.2514

          k = 0.2500 0.7500 0.7500 (   788 PWs)   bands (ev):

    11.6081  11.6081  12.7290  12.7290  14.2819  14.2819  15.9152  15.9152
    18.2594  18.2594  21.2031  21.2031  25.6573  25.6573  32.5347  32.5347
    34.5231  34.5231  38.4141  38.4141  46.6449  46.6449  49.8766  49.8766

          k = 0.0000 1.0000 0.5000 (   772 PWs)   bands (ev):

    12.1773  12.1773  13.1530  13.1530  13.4106  13.4106  16.1362  16.1362
    18.6049  18.6049  25.4238  25.4238  25.8096  25.8096  27.2198  27.2198
    30.6771  30.6771  45.1672  45.1672  45.7527  45.7527  45.9457  45.9457

          k =-0.2500 1.2500 0.2500 (   788 PWs)   bands (ev):

    11.6081  11.6081  12.7290  12.7290  14.2819  14.2819  15.9152  15.9152
    18.2594  18.2594  21.2031  21.2031  25.6573  25.6573  32.5347  32.5347
    34.5231  34.5231  38.4141  38.4141  46.6449  46.6449  49.8766  49.8766

          k =-0.5000-0.5000 0.5000 (   796 PWs)   bands (ev):

    10.5549  10.5549  13.5349  13.5349  14.5452  14.5452  17.3782  17.3782
    17.7959  17.7959  18.4560  18.4560  24.1175  24.1175  34.3175  34.3175
    37.4761  37.4761  39.0146  39.0146  48.2259  48.2259  48.7639  48.7639

          k =-0.7500-0.2500 0.2500 (   788 PWs)   bands (ev):

    11.6081  11.6081  12.7290  12.7290  14.2819  14.2819  15.9152  15.9152
    18.2594  18.2594  21.2031  21.2031  25.6573  25.6573  32.5347  32.5347
    34.5231  34.5231  38.4141  38.4141  46.6449  46.6449  49.8766  49.8766

          k =-1.0000 0.0000 0.0000 (   790 PWs)   bands (ev):

    10.7986  10.7986  11.2408  11.2408  17.8675  17.8675  18.1955  18.1955
    19.1754  19.1754  19.6306  19.6306  27.1106  27.1106  29.2988  29.2988
    30.7982  30.7982  38.8652  38.8652  43.4714  43.4714  53.3439  53.3439

          k =-1.2500 0.2500-0.2500 (   788 PWs)   bands (ev):

    11.6081  11.6081  12.7290  12.7290  14.2819  14.2819  15.9152  15.9152
    18.2594  18.2594  21.2031  21.2031  25.6573  25.6573  32.5347  32.5347
    34.5231  34.5231  38.4141  38.4141  46.6449  46.6449  49.8766  49.8766

          k =-0.2500-0.2500 0.7500 (   788 PWs)   bands (ev):

    11.6081  11.6081  12.7290  12.7290  14.2819  14.2819  15.9152  15.9152
    18.2594  18.2594  21.2031  21.2031  25.6573  25.6573  32.5347  32.5347
    34.5231  34.5231  38.4141  38.4141  46.6449  46.6449  49.8766  49.8766

          k =-0.5000 0.0000 0.5000 (   792 PWs)   bands (ev):

    12.0321  12.0321  13.1314  13.1314  13.6122  13.6122  15.4214  15.4214
    16.4606  16.4606  20.0577  20.0577  29.0517  29.0517  31.4058  31.4058
    37.5996  37.5996  39.9705  39.9705  43.4118  43.4118  50.2514  50.2514

          k =-0.7500 0.2500 0.2500 (   788 PWs)   bands (ev):

    11.6081  11.6081  12.7290  12.7290  14.2819  14.2819  15.9152  15.9152
    18.2594  18.2594  21.2031  21.2031  25.6573  25.6573  32.5347  32.5347
    34.5231  34.5231  38.4141  38.4141  46.6449  46.6449  49.8766  49.8766

          k =-1.0000 0.5000 0.0000 (   772 PWs)   bands (ev):

    12.1773  12.1773  13.1530  13.1530  13.4106  13.4106  16.1362  16.1362
    18.6049  18.6049  25.4238  25.4238  25.8096  25.8096  27.2198  27.2198
    30.6771  30.6771  45.1672  45.1672  45.7527  45.7527  45.9457  45.9457

          k = 0.0000 0.0000 1.0000 (   790 PWs)   bands (ev):

    10.7986  10.7986  11.2408  11.2408  17.8675  17.8675  18.1955  18.1955
    19.1754  19.1754  19.6306  19.6306  27.1106  27.1106  29.2988  29.2988
    30.7982  30.7982  38.8652  38.8652  43.4714  43.4714  53.3439  53.3439

          k =-0.2500 0.2500 0.7500 (   788 PWs)   bands (ev):

    11.6081  11.6081  12.7290  12.7290  14.2819  14.2819  15.9152  15.9152
    18.2594  18.2594  21.2031  21.2031  25.6573  25.6573  32.5347  32.5347
    34.5231  34.5231  38.4141  38.4141  46.6449  46.6449  49.8766  49.8766

          k =-0.5000 0.5000 0.5000 (   796 PWs)   bands (ev):

    10.5549  10.5549  13.5349  13.5349  14.5452  14.5452  17.3782  17.3782
    17.7959  17.7959  18.4560  18.4560  24.1175  24.1175  34.3175  34.3175
    37.4761  37.4761  39.0146  39.0146  48.2259  48.2259  48.7639  48.7639

          k =-0.7500 0.7500 0.2500 (   788 PWs)   bands (ev):

    11.6081  11.6081  12.7290  12.7290  14.2819  14.2819  15.9152  15.9152
    18.2594  18.2594  21.2031  21.2031  25.6573  25.6573  32.5347  32.5347
    34.5231  34.5231  38.4141  38.4141  46.6449  46.6449  49.8766  49.8766

          k = 0.2500 0.2500 1.2500 (   788 PWs)   bands (ev):

    11.6081  11.6081  12.7290  12.7290  14.2819  14.2819  15.9152  15.9152
    18.2594  18.2594  21.2031  21.2031  25.6573  25.6573  32.5347  32.5347
    34.5231  34.5231  38.4141  38.4141  46.6449  46.6449  49.8766  49.8766

          k = 0.0000 0.5000 1.0000 (   772 PWs)   bands (ev):

    12.1773  12.1773  13.1530  13.1530  13.4106  13.4106  16.1362  16.1362
    18.6049  18.6049  25.4238  25.4238  25.8096  25.8096  27.2198  27.2198
    30.6771  30.6771  45.1672  45.1672  45.7527  45.7527  45.9457  45.9457

          k =-0.2500 0.7500 0.7500 (   788 PWs)   bands (ev):

    11.6081  11.6081  12.7290  12.7290  14.2819  14.2819  15.9152  15.9152
    18.2594  18.2594  21.2031  21.2031  25.6573  25.6573  32.5347  32.5347
    34.5231  34.5231  38.4141  38.4141  46.6449  46.6449  49.8766  49.8766

          k =-0.5000 1.0000 0.5000 (   792 PWs)   bands (ev):

    12.0321  12.0321  13.1314  13.1314  13.6122  13.6122  15.4214  15.4214
    16.4606  16.4606  20.0577  20.0577  29.0517  29.0517  31.4058  31.4058
    37.5996  37.5996  39.9705  39.9705  43.4118  43.4118  50.2514  50.2514

          k =-0.7500-0.7500 0.7500 (   797 PWs)   bands (ev):

     9.6977   9.6977  13.6365  13.6365  13.8846  13.8846  15.0798  15.0798
    16.4033  16.4033  16.9969  16.9969  31.9270  31.9270  36.6562  36.6562
    40.5576  40.5576  41.9865  41.9865  43.1494  43.1494  45.8813  45.8813

          k =-1.0000-0.5000 0.5000 (   792 PWs)   bands (ev):

    12.0321  12.0321  13.1314  13.1314  13.6122  13.6122  15.4214  15.4214
    16.4606  16.4606  20.0577  20.0577  29.0517  29.0517  31.4058  31.4058
    37.5996  37.5996  39.9705  39.9705  43.4118  43.4118  50.2514  50.2514

          k =-1.2500-0.2500 0.2500 (   788 PWs)   bands (ev):

    11.6081  11.6081  12.7290  12.7290  14.2819  14.2819  15.9152  15.9152
    18.2594  18.2594  21.2031  21.2031  25.6573  25.6573  32.5347  32.5347
    34.5231  34.5231  38.4141  38.4141  46.6449  46.6449  49.8766  49.8766

          k =-1.5000 0.0000 0.0000 (   817 PWs)   bands (ev):

    10.4026  10.4026  12.4605  12.4605  14.5121  14.5121  16.0056  16.0056
    16.0860  16.0860  17.3634  17.3634  34.6487  34.6487  36.5688  36.5688
    37.1314  37.1314  38.7363  38.7363  39.5147  39.5147  48.6354  48.6354

          k =-0.5000-0.5000 1.0000 (   792 PWs)   bands (ev):

    12.0321  12.0321  13.1314  13.1314  13.6122  13.6122  15.4214  15.4214
    16.4606  16.4606  20.0577  20.0577  29.0517  29.0517  31.4058  31.4058
    37.5996  37.5996  39.9705  39.9705  43.4118  43.4118  50.2514  50.2514

          k =-0.7500-0.2500 0.7500 (   788 PWs)   bands (ev):

    11.6081  11.6081  12.7290  12.7290  14.2819  14.2819  15.9152  15.9152
    18.2594  18.2594  21.2031  21.2031  25.6573  25.6573  32.5347  32.5347
    34.5231  34.5231  38.4141  38.4141  46.6449  46.6449  49.8766  49.8766

          k =-1.0000 0.0000 0.5000 (   772 PWs)   bands (ev):

    12.1773  12.1773  13.1530  13.1530  13.4106  13.4106  16.1362  16.1362
    18.6049  18.6049  25.4238  25.4238  25.8096  25.8096  27.2198  27.2198
    30.6771  30.6771  45.1672  45.1672  45.7527  45.7527  45.9457  45.9457

          k =-1.2500 0.2500 0.2500 (   788 PWs)   bands (ev):

    11.6081  11.6081  12.7290  12.7290  14.2819  14.2819  15.9152  15.9152
    18.2594  18.2594  21.2031  21.2031  25.6573  25.6573  32.5347  32.5347
    34.5231  34.5231  38.4141  38.4141  46.6449  46.6449  49.8766  49.8766

          k =-0.2500-0.2500 1.2500 (   788 PWs)   bands (ev):

    11.6081  11.6081  12.7290  12.7290  14.2819  14.2819  15.9152  15.9152
    18.2594  18.2594  21.2031  21.2031  25.6573  25.6573  32.5347  32.5347
    34.5231  34.5231  38.4141  38.4141  46.6449  46.6449  49.8766  49.8766

          k =-0.5000 0.0000 1.0000 (   772 PWs)   bands (ev):

    12.1773  12.1773  13.1530  13.1530  13.4106  13.4106  16.1362  16.1362
    18.6049  18.6049  25.4238  25.4238  25.8096  25.8096  27.2198  27.2198
    30.6771  30.6771  45.1672  45.1672  45.7527  45.7527  45.9457  45.9457

          k =-0.7500 0.2500 0.7500 (   788 PWs)   bands (ev):

    11.6081  11.6081  12.7290  12.7290  14.2819  14.2819  15.9152  15.9152
    18.2594  18.2594  21.2031  21.2031  25.6573  25.6573  32.5347  32.5347
    34.5231  34.5231  38.4141  38.4141  46.6449  46.6449  49.8766  49.8766

          k =-1.0000 0.5000 0.5000 (   792 PWs)   bands (ev):

    12.0321  12.0321  13.1314  13.1314  13.6122  13.6122  15.4214  15.4214
    16.4606  16.4606  20.0577  20.0577  29.0517  29.0517  31.4058  31.4058
    37.5996  37.5996  39.9705  39.9705  43.4118  43.4118  50.2514  50.2514

          k = 0.0000 0.0000 1.5000 (   817 PWs)   bands (ev):

    10.4026  10.4026  12.4605  12.4605  14.5121  14.5121  16.0056  16.0056
    16.0860  16.0860  17.3634  17.3634  34.6487  34.6487  36.5688  36.5688
    37.1314  37.1314  38.7363  38.7363  39.5147  39.5147  48.6354  48.6354

          k =-0.2500 0.2500 1.2500 (   788 PWs)   bands (ev):

    11.6081  11.6081  12.7290  12.7290  14.2819  14.2819  15.9152  15.9152
    18.2594  18.2594  21.2031  21.2031  25.6573  25.6573  32.5347  32.5347
    34.5231  34.5231  38.4141  38.4141  46.6449  46.6449  49.8766  49.8766

          k =-0.5000 0.5000 1.0000 (   792 PWs)   bands (ev):

    12.0321  12.0321  13.1314  13.1314  13.6122  13.6122  15.4214  15.4214
    16.4606  16.4606  20.0577  20.0577  29.0517  29.0517  31.4058  31.4058
    37.5996  37.5996  39.9705  39.9705  43.4118  43.4118  50.2514  50.2514

          k =-0.7500 0.7500 0.7500 (   797 PWs)   bands (ev):

     9.6977   9.6977  13.6365  13.6365  13.8846  13.8846  15.0798  15.0798
    16.4033  16.4033  16.9969  16.9969  31.9270  31.9270  36.6562  36.6562
    40.5576  40.5576  41.9865  41.9865  43.1494  43.1494  45.8813  45.8813

     Writing all to output data dir ./temp/Pt.save/
 
     init_run     :      0.07s CPU      0.10s WALL (       1 calls)
     electrons    :      0.83s CPU      0.88s WALL (       1 calls)

     Called by init_run:
     wfcinit      :      0.00s CPU      0.01s WALL (       1 calls)
     wfcinit:atom :      0.00s CPU      0.00s WALL (       5 calls)
     wfcinit:wfcr :      0.03s CPU      0.03s WALL (       5 calls)
     potinit      :      0.01s CPU      0.01s WALL (       1 calls)
     hinit0       :      0.04s CPU      0.04s WALL (       1 calls)

     Called by electrons:
     c_bands      :      0.82s CPU      0.85s WALL (       1 calls)
     v_of_rho     :      0.00s CPU      0.00s WALL (       1 calls)
     v_h          :      0.00s CPU      0.00s WALL (       1 calls)
     v_xc         :      0.00s CPU      0.00s WALL (       1 calls)

     Called by c_bands:
     init_us_2    :      0.00s CPU      0.00s WALL (       5 calls)
     init_us_2:cp :      0.00s CPU      0.00s WALL (       5 calls)
     cegterg      :      0.72s CPU      0.75s WALL (      14 calls)

     Called by sum_band:

     Called by *egterg:
     cdiaghg      :      0.13s CPU      0.13s WALL (     218 calls)
     cegterg:over :      0.03s CPU      0.04s WALL (     213 calls)
     cegterg:upda :      0.02s CPU      0.02s WALL (     213 calls)
     cegterg:last :      0.03s CPU      0.03s WALL (     108 calls)
     h_psi        :      0.52s CPU      0.54s WALL (     232 calls)
     g_psi        :      0.01s CPU      0.01s WALL (     213 calls)

     Called by h_psi:
     h_psi:calbec :      0.01s CPU      0.01s WALL (     232 calls)
     vloc_psi     :      0.50s CPU      0.52s WALL (     232 calls)
     add_vuspsi   :      0.01s CPU      0.01s WALL (     232 calls)

     General routines
     calbec       :      0.01s CPU      0.01s WALL (     232 calls)
     fft          :      0.01s CPU      0.01s WALL (      14 calls)
     fftw         :      0.44s CPU      0.45s WALL (   10892 calls)
     davcio       :      0.00s CPU      0.00s WALL (      10 calls)
 
     Parallel routines
 
     PWSCF        :      1.11s CPU      1.45s WALL

 
   This run was terminated on:  15:23:20  13May2022            

=------------------------------------------------------------------------------=
   JOB DONE.
=------------------------------------------------------------------------------=
