 
             +---------------------------------------------------+
             |                                                   |
             |                   WANNIER90                       |
             |                                                   |
             +---------------------------------------------------+
             |                                                   |
             |        Welcome to the Maximally-Localized         |
             |        Generalized Wannier Functions code         |
             |            http://www.wannier.org                 |
             |                                                   |
             |                                                   |
             |  Wannier90 Developer Group:                       |
             |    Giovanni Pizzi    (EPFL)                       |
             |    Valerio Vitale    (Cambridge)                  |
             |    David Vanderbilt  (Rutgers University)         |
             |    Nicola Marzari    (EPFL)                       |
             |    Ivo Souza         (Universidad del Pais Vasco) |
             |    Arash A. Mostofi  (Imperial College London)    |
             |    Jonathan R. Yates (University of Oxford)       |
             |                                                   |
             |  For the full list of Wannier90 3.x authors,      |
             |  please check the code documentation and the      |
             |  README on the GitHub page of the code            |
             |                                                   |
             |                                                   |
             |  Please cite                                      |
             |                                                   |
             |  [ref] "Wannier90 as a community code:            |
             |        new features and applications",            |
             |        G. Pizzi et al., J. Phys. Cond. Matt. 32,  |
             |        165902 (2020).                             |
             |        http://doi.org/10.1088/1361-648X/ab51ff    |
             |                                                   |
             |  in any publications arising from the use of      |
             |  this code. For the method please cite            |
             |                                                   |
             |  [ref] "Maximally Localized Generalised Wannier   |
             |         Functions for Composite Energy Bands"     |
             |         N. Marzari and D. Vanderbilt              |
             |         Phys. Rev. B 56 12847 (1997)              |
             |                                                   |
             |  [ref] "Maximally Localized Wannier Functions     |
             |         for Entangled Energy Bands"               |
             |         I. Souza, N. Marzari and D. Vanderbilt    |
             |         Phys. Rev. B 65 035109 (2001)             |
             |                                                   |
             |                                                   |
             | Copyright (c) 1996-2020                           |
             |        The Wannier90 Developer Group and          |
             |        individual contributors                    |
             |                                                   |
             |      Release: 3.1.0        5th March    2020      |
             |                                                   |
             | This program is free software; you can            |
             | redistribute it and/or modify it under the terms  |
             | of the GNU General Public License as published by |
             | the Free Software Foundation; either version 2 of |
             | the License, or (at your option) any later version|
             |                                                   |
             | This program is distributed in the hope that it   |
             | will be useful, but WITHOUT ANY WARRANTY; without |
             | even the implied warranty of MERCHANTABILITY or   |
             | FITNESS FOR A PARTICULAR PURPOSE. See the GNU     |
             | General Public License for more details.          |
             |                                                   |
             | You should have received a copy of the GNU General|
             | Public License along with this program; if not,   |
             | write to the Free Software Foundation, Inc.,      |
             | 675 Mass Ave, Cambridge, MA 02139, USA.           |
             |                                                   |
             +---------------------------------------------------+
             |    Execution started on 13May2022 at 15:23:25     |
             +---------------------------------------------------+
 
 ******************************************************************************
 * -> Using CODATA 2006 constant values                                       *
 *    (http://physics.nist.gov/cuu/Constants/index.html)                      *
 * -> Using Bohr value from CODATA                                            *
 ******************************************************************************
 

 Running in parallel on  60 CPUs

 
                                    ------
                                    SYSTEM
                                    ------
 
                              Lattice Vectors (Ang)
                    a_1    -1.955998   0.000000   1.955998
                    a_2     0.000000   1.955998   1.955998
                    a_3    -1.955998   1.955998   0.000000
 
                   Unit Cell Volume:      14.96701  (Ang^3)
 
                        Reciprocal-Space Vectors (Ang^-1)
                    b_1    -1.606133  -1.606133   1.606133
                    b_2     1.606133   1.606133   1.606133
                    b_3    -1.606133   1.606133  -1.606133
  
 *----------------------------------------------------------------------------*
 |   Site       Fractional Coordinate          Cartesian Coordinate (Ang)     |
 +----------------------------------------------------------------------------+
 | Pt   1   0.00000   0.00000   0.00000   |    0.00000   0.00000   0.00000    |
 *----------------------------------------------------------------------------*
                                ------------
                                K-POINT GRID
                                ------------
  
             Grid size =  4 x  4 x  4      Total points =   64
  
  
 *---------------------------------- MAIN ------------------------------------*
 |  Number of Wannier Functions               :                18             |
 |  Number of Objective Wannier Functions     :                18             |
 |  Number of input Bloch states              :                24             |
 |  Output verbosity (1=low, 5=high)          :                 1             |
 |  Timing Level (1=low, 5=high)              :                 1             |
 |  Optimisation (0=memory, 3=speed)          :                 3             |
 |  Length Unit                               :               Ang             |
 |  Post-processing setup (write *.nnkp)      :                 F             |
 |  Using Gamma-only branch of algorithms     :                 F             |
 *----------------------------------------------------------------------------*
 *------------------------------- WANNIERISE ---------------------------------*
 |  Total number of iterations                :              1000             |
 |  Number of CG steps before reset           :                 5             |
 |  Trial step length for line search         :             2.000             |
 |  Convergence tolerence                     :         0.100E-09             |
 |  Convergence window                        :                -1             |
 |  Iterations between writing output         :                 1             |
 |  Iterations between backing up to disk     :               100             |
 |  Write r^2_nm to file                      :                 F             |
 |  Write xyz WF centres to file              :                 F             |
 |  Write on-site energies <0n|H|0n> to file  :                 F             |
 |  Use guiding centre to control phases      :                 F             |
 |  Use phases for initial projections        :                 F             |
 *----------------------------------------------------------------------------*
 *------------------------------- DISENTANGLE --------------------------------*
 |  Using band disentanglement                :                 T             |
 |  Total number of iterations                :              1000             |
 |  Mixing ratio                              :             0.600             |
 |  Convergence tolerence                     :         1.000E-10             |
 |  Convergence window                        :                 3             |
 *----------------------------------------------------------------------------*
 *-------------------------------- PLOTTING ----------------------------------*
 |  Plotting interpolated bandstructure       :                 T             |
 |   Number of K-path sections                :                 5             |
 |   Divisions along first K-path section     :               100             |
 |   Output format                            :           gnuplot             |
 |   Output mode                              :               s-k             |
 *----------------------------------------------------------------------------*
 |   K-space path sections:                                                   |
 |    From: W       0.250  0.750  0.500     To: L       0.500  0.500  0.500   |
 |    From: L       0.500  0.500  0.500     To: G       0.000  0.000  0.000   |
 |    From: G       0.000  0.000  0.000     To: X       0.500  0.000  0.500   |
 |    From: X       0.500  0.000  0.500     To: W       0.500  0.250  0.750   |
 |    From: W       0.500  0.250  0.750     To: G       0.000  0.000  0.000   |
 *----------------------------------------------------------------------------*
 Time to read parameters        0.076 (sec)

 *---------------------------------- K-MESH ----------------------------------*
 +----------------------------------------------------------------------------+
 |                    Distance to Nearest-Neighbour Shells                    |
 |                    ------------------------------------                    |
 |          Shell             Distance (Ang^-1)          Multiplicity         |
 |          -----             -----------------          ------------         |
 |             1                   0.695476                      8            |
 |             2                   0.803067                      6            |
 |             3                   1.135708                     12            |
 |             4                   1.331735                     24            |
 |             5                   1.390952                      8            |
 |             6                   1.606133                      6            |
 |             7                   1.750243                     24            |
 |             8                   1.795711                     24            |
 |             9                   1.967103                     24            |
 |            10                   2.086428                     32            |
 |            11                   2.271415                     12            |
 |            12                   2.375503                     48            |
 |            13                   2.409200                     30            |
 |            14                   2.539519                     24            |
 |            15                   2.633030                     24            |
 |            16                   2.663470                     24            |
 |            17                   2.781904                      8            |
 |            18                   2.867521                     48            |
 |            19                   2.895498                     24            |
 |            20                   3.004800                     48            |
 |            21                   3.084236                     72            |
 |            22                   3.212266                      6            |
 |            23                   3.286691                     24            |
 |            24                   3.311128                     48            |
 |            25                   3.407123                     36            |
 |            26                   3.477380                     56            |
 |            27                   3.500486                     24            |
 |            28                   3.591423                     24            |
 |            29                   3.658142                     72            |
 |            30                   3.680113                     48            |
 |            31                   3.766716                     24            |
 |            32                   3.830383                     48            |
 |            33                   3.934207                     24            |
 |            34                   3.995206                     72            |
 |            35                   4.015333                     30            |
 |            36                   4.094852                     72            |
 +----------------------------------------------------------------------------+
 | The b-vectors are chosen automatically                                     |
 | The following shells are used:   1                                         |
 +----------------------------------------------------------------------------+
 |                        Shell   # Nearest-Neighbours                        |
 |                        -----   --------------------                        |
 |                          1               8                                 |
 +----------------------------------------------------------------------------+
 | Completeness relation is fully satisfied [Eq. (B1), PRB 56, 12847 (1997)]  |
 +----------------------------------------------------------------------------+
 |                  b_k Vectors (Ang^-1) and Weights (Ang^2)                  |
 |                  ----------------------------------------                  |
 |            No.         b_k(x)      b_k(y)      b_k(z)        w_b           |
 |            ---        --------------------------------     --------        |
 |             1        -0.401533    0.401533   -0.401533     0.775295        |
 |             2         0.401533    0.401533    0.401533     0.775295        |
 |             3        -0.401533   -0.401533    0.401533     0.775295        |
 |             4        -0.401533    0.401533    0.401533     0.775295        |
 |             5         0.401533   -0.401533    0.401533     0.775295        |
 |             6        -0.401533   -0.401533   -0.401533     0.775295        |
 |             7         0.401533    0.401533   -0.401533     0.775295        |
 |             8         0.401533   -0.401533   -0.401533     0.775295        |
 +----------------------------------------------------------------------------+
 |                           b_k Directions (Ang^-1)                          |
 |                           -----------------------                          |
 |            No.           x           y           z                         |
 |            ---        --------------------------------                     |
 |             1        -0.401533    0.401533   -0.401533                     |
 |             2         0.401533    0.401533    0.401533                     |
 |             3        -0.401533   -0.401533    0.401533                     |
 |             4        -0.401533    0.401533    0.401533                     |
 +----------------------------------------------------------------------------+
  
 Time to get kmesh              0.049 (sec)
 *============================================================================*
 |                              MEMORY ESTIMATE                               |
 |         Maximum RAM allocated during each phase of the calculation         |
 *============================================================================*
 |                        Disentanglement            8.26 Mb                  |
 |                            Wannierise:            7.17 Mb                  |
 |                          plot_wannier:            7.17 Mb                  |
 *----------------------------------------------------------------------------*
  
 Starting a new Wannier90 calculation ...


 Reading overlaps from Pt.mmn    :  Created on 13May2022 at 15:23:23

 Reading projections from Pt.amn :  Created on 13May2022 at 15:23:22

 Time to read overlaps          0.362 (sec)

 *------------------------------- DISENTANGLE --------------------------------*
 +----------------------------------------------------------------------------+
 |                              Energy  Windows                               |
 |                              ---------------                               |
 |                   Outer:    7.64064  to   45.00000  (eV)                   |
 |                   Inner:    7.64064  to   22.00000  (eV)                   |
 +----------------------------------------------------------------------------+
   Number of target bands to extract:   18

                   Unitarised projection of Wannier functions                  
                   ------------------------------------------                  
   A_mn = <psi_m|g_n> --> S = A.A^+ --> U = S^-1/2.A
   In dis_project... done
   Using an inner window (linner = T)
   In dis_proj_froz... done

                   Extraction of optimally-connected subspace                  
                   ------------------------------------------                  
 +---------------------------------------------------------------------+<-- DIS
 |  Iter     Omega_I(i-1)      Omega_I(i)      Delta (frac.)    Time   |<-- DIS
 +---------------------------------------------------------------------+<-- DIS
       1      12.48910173      12.28861688       1.631E-02      0.00    <-- DIS
       2      12.31960789      12.26732357       4.262E-03      0.00    <-- DIS
       3      12.28300464      12.26122871       1.776E-03      0.00    <-- DIS
       4      12.26710787      12.25906447       6.561E-04      0.00    <-- DIS
       5      12.26073595      12.25823129       2.043E-04      0.00    <-- DIS
       6      12.25837407      12.25788592       3.982E-05      0.01    <-- DIS
       7      12.25759429      12.25773008      -1.108E-05      0.01    <-- DIS
       8      12.25739492      12.25765309      -2.106E-05      0.01    <-- DIS
       9      12.25738538      12.25761170      -1.846E-05      0.01    <-- DIS
      10      12.25742361      12.25758787      -1.340E-05      0.01    <-- DIS
      11      12.25746357      12.25757347      -8.966E-06      0.01    <-- DIS
      12      12.25749389      12.25756448      -5.759E-06      0.01    <-- DIS
      13      12.25751433      12.25755876      -3.625E-06      0.01    <-- DIS
      14      12.25752732      12.25755507      -2.264E-06      0.01    <-- DIS
      15      12.25753532      12.25755268      -1.417E-06      0.01    <-- DIS
      16      12.25754017      12.25755112      -8.935E-07      0.02    <-- DIS
      17      12.25754310      12.25755011      -5.717E-07      0.02    <-- DIS
      18      12.25754487      12.25754944      -3.728E-07      0.02    <-- DIS
      19      12.25754596      12.25754901      -2.487E-07      0.02    <-- DIS
      20      12.25754664      12.25754872      -1.701E-07      0.02    <-- DIS
      21      12.25754707      12.25754854      -1.194E-07      0.02    <-- DIS
      22      12.25754736      12.25754842      -8.601E-08      0.02    <-- DIS
      23      12.25754756      12.25754834      -6.340E-08      0.02    <-- DIS
      24      12.25754770      12.25754828      -4.769E-08      0.02    <-- DIS
      25      12.25754780      12.25754825      -3.650E-08      0.02    <-- DIS
      26      12.25754788      12.25754823      -2.833E-08      0.02    <-- DIS
      27      12.25754794      12.25754821      -2.222E-08      0.03    <-- DIS
      28      12.25754799      12.25754820      -1.758E-08      0.03    <-- DIS
      29      12.25754802      12.25754820      -1.400E-08      0.03    <-- DIS
      30      12.25754805      12.25754819      -1.120E-08      0.03    <-- DIS
      31      12.25754808      12.25754819      -8.990E-09      0.03    <-- DIS
      32      12.25754810      12.25754819      -7.234E-09      0.03    <-- DIS
      33      12.25754811      12.25754819      -5.832E-09      0.03    <-- DIS
      34      12.25754813      12.25754819      -4.708E-09      0.03    <-- DIS
      35      12.25754814      12.25754818      -3.803E-09      0.03    <-- DIS
      36      12.25754815      12.25754818      -3.075E-09      0.03    <-- DIS
      37      12.25754815      12.25754818      -2.487E-09      0.04    <-- DIS
      38      12.25754816      12.25754818      -2.012E-09      0.04    <-- DIS
      39      12.25754816      12.25754818      -1.628E-09      0.04    <-- DIS
      40      12.25754817      12.25754818      -1.317E-09      0.04    <-- DIS
      41      12.25754817      12.25754818      -1.066E-09      0.04    <-- DIS
      42      12.25754817      12.25754818      -8.630E-10      0.04    <-- DIS
      43      12.25754818      12.25754818      -6.985E-10      0.04    <-- DIS
      44      12.25754818      12.25754818      -5.654E-10      0.04    <-- DIS
      45      12.25754818      12.25754818      -4.576E-10      0.04    <-- DIS
      46      12.25754818      12.25754818      -3.704E-10      0.04    <-- DIS
      47      12.25754818      12.25754818      -2.998E-10      0.04    <-- DIS
      48      12.25754818      12.25754818      -2.426E-10      0.05    <-- DIS
      49      12.25754818      12.25754818      -1.964E-10      0.05    <-- DIS
      50      12.25754818      12.25754818      -1.589E-10      0.05    <-- DIS
      51      12.25754818      12.25754818      -1.286E-10      0.05    <-- DIS
      52      12.25754818      12.25754818      -1.041E-10      0.05    <-- DIS
      53      12.25754818      12.25754818      -8.426E-11      0.05    <-- DIS
      54      12.25754818      12.25754818      -6.820E-11      0.05    <-- DIS
      55      12.25754818      12.25754818      -5.519E-11      0.05    <-- DIS

             <<<      Delta < 1.000E-10  over  3 iterations     >>>
             <<< Disentanglement convergence criteria satisfied >>>

        Final Omega_I    12.25754818 (Ang^2)

 +----------------------------------------------------------------------------+

 Time to disentangle bands      0.138 (sec)

 Writing checkpoint file Pt.chk... done

 
 *------------------------------- WANNIERISE ---------------------------------*
 +--------------------------------------------------------------------+<-- CONV
 | Iter  Delta Spread     RMS Gradient      Spread (Ang^2)      Time  |<-- CONV
 +--------------------------------------------------------------------+<-- CONV
 
 ------------------------------------------------------------------------------
 Initial State
  WF centre and spread    1  (  0.000000,  0.000000, -0.000000 )     1.65786791
  WF centre and spread    2  ( -0.000000,  0.000000,  0.000000 )     1.65786791
  WF centre and spread    3  ( -0.000000, -0.000000,  0.000000 )     2.12812417
  WF centre and spread    4  ( -0.000000,  0.000000, -0.000000 )     2.12812417
  WF centre and spread    5  ( -0.000000,  0.000000,  0.000000 )     2.12914114
  WF centre and spread    6  (  0.000000, -0.000000, -0.000000 )     2.12914114
  WF centre and spread    7  ( -0.000000, -0.000000, -0.000000 )     2.12914114
  WF centre and spread    8  (  0.000000, -0.000000,  0.000000 )     2.12914114
  WF centre and spread    9  ( -0.000000,  0.000000,  0.000000 )     0.78627132
  WF centre and spread   10  ( -0.000000, -0.000000, -0.000000 )     0.78627132
  WF centre and spread   11  ( -0.000000,  0.000000, -0.000000 )     0.76637913
  WF centre and spread   12  ( -0.000000,  0.000000,  0.000000 )     0.76637913
  WF centre and spread   13  ( -0.000000,  0.000000, -0.000000 )     0.76637913
  WF centre and spread   14  (  0.000000,  0.000000,  0.000000 )     0.76637913
  WF centre and spread   15  ( -0.000000,  0.000000,  0.000000 )     0.78652443
  WF centre and spread   16  (  0.000000,  0.000000, -0.000000 )     0.78652443
  WF centre and spread   17  (  0.000000,  0.000000,  0.000000 )     0.76636960
  WF centre and spread   18  ( -0.000000,  0.000000,  0.000000 )     0.76636960
  Sum of centres and spreads ( -0.000000, -0.000000,  0.000000 )    23.83239591
 
      0     0.238E+02     0.0000000000       23.8323959115       0.08  <-- CONV
        O_D=      0.0015129 O_OD=     11.5733348 O_TOT=     23.8323959 <-- SPRD
 ------------------------------------------------------------------------------
 Cycle:      1
  WF centre and spread    1  (  0.000000,  0.000000, -0.000000 )     1.50915333
  WF centre and spread    2  ( -0.000000,  0.000000,  0.000000 )     1.50915333
  WF centre and spread    3  ( -0.000000, -0.000000,  0.000000 )     2.04363031
  WF centre and spread    4  ( -0.000000,  0.000000, -0.000000 )     2.04363031
  WF centre and spread    5  ( -0.000000,  0.000000,  0.000000 )     2.04420176
  WF centre and spread    6  (  0.000000, -0.000000, -0.000000 )     2.04420175
  WF centre and spread    7  ( -0.000000, -0.000000, -0.000000 )     2.04420176
  WF centre and spread    8  (  0.000000, -0.000000,  0.000000 )     2.04420176
  WF centre and spread    9  ( -0.000000,  0.000000, -0.000000 )     0.76516654
  WF centre and spread   10  ( -0.000000, -0.000000, -0.000000 )     0.76516654
  WF centre and spread   11  (  0.000000,  0.000000, -0.000000 )     0.74602446
  WF centre and spread   12  ( -0.000000,  0.000000,  0.000000 )     0.74602446
  WF centre and spread   13  ( -0.000000,  0.000000, -0.000000 )     0.74602446
  WF centre and spread   14  (  0.000000,  0.000000,  0.000000 )     0.74602446
  WF centre and spread   15  (  0.000000,  0.000000,  0.000000 )     0.76529316
  WF centre and spread   16  ( -0.000000,  0.000000, -0.000000 )     0.76529316
  WF centre and spread   17  (  0.000000,  0.000000,  0.000000 )     0.74600554
  WF centre and spread   18  ( -0.000000,  0.000000,  0.000000 )     0.74600554
  Sum of centres and spreads ( -0.000000,  0.000000,  0.000000 )    22.81940264
 
      1    -0.101E+01     0.5077401005       22.8194026434       0.14  <-- CONV
        O_D=      0.0016949 O_OD=     10.5601596 O_TOT=     22.8194026 <-- SPRD
 Delta: O_D=  0.1819670E-03 O_OD= -0.1013175E+01 O_TOT= -0.1012993E+01 <-- DLTA
 ------------------------------------------------------------------------------
 Cycle:      2
  WF centre and spread    1  (  0.000000,  0.000000, -0.000000 )     1.48274440
  WF centre and spread    2  ( -0.000000,  0.000000,  0.000000 )     1.48274440
  WF centre and spread    3  ( -0.000000, -0.000000,  0.000000 )     2.03918698
  WF centre and spread    4  ( -0.000000,  0.000000, -0.000000 )     2.03918698
  WF centre and spread    5  ( -0.000000,  0.000000,  0.000000 )     2.03962829
  WF centre and spread    6  (  0.000000, -0.000000, -0.000000 )     2.03962829
  WF centre and spread    7  ( -0.000000, -0.000000, -0.000000 )     2.03962829
  WF centre and spread    8  (  0.000000, -0.000000,  0.000000 )     2.03962829
  WF centre and spread    9  ( -0.000000,  0.000000, -0.000000 )     0.76481164
  WF centre and spread   10  ( -0.000000, -0.000000, -0.000000 )     0.76481164
  WF centre and spread   11  (  0.000000,  0.000000, -0.000000 )     0.74656945
  WF centre and spread   12  ( -0.000000,  0.000000,  0.000000 )     0.74656945
  WF centre and spread   13  ( -0.000000,  0.000000, -0.000000 )     0.74656945
  WF centre and spread   14  (  0.000000,  0.000000,  0.000000 )     0.74656945
  WF centre and spread   15  (  0.000000,  0.000000,  0.000000 )     0.76489334
  WF centre and spread   16  ( -0.000000,  0.000000, -0.000000 )     0.76489334
  WF centre and spread   17  (  0.000000,  0.000000,  0.000000 )     0.74656657
  WF centre and spread   18  ( -0.000000,  0.000000,  0.000000 )     0.74656657
  Sum of centres and spreads ( -0.000000,  0.000000,  0.000000 )    22.74119685
 
      2    -0.782E-01     0.2250304214       22.7411968547       0.14  <-- CONV
        O_D=      0.0014733 O_OD=     10.4821754 O_TOT=     22.7411969 <-- SPRD
 Delta: O_D= -0.2216241E-03 O_OD= -0.7798416E-01 O_TOT= -0.7820579E-01 <-- DLTA
 ------------------------------------------------------------------------------
 Cycle:      3
  WF centre and spread    1  (  0.000000,  0.000000, -0.000000 )     1.47666015
  WF centre and spread    2  ( -0.000000,  0.000000,  0.000000 )     1.47666015
  WF centre and spread    3  ( -0.000000, -0.000000,  0.000000 )     2.04018412
  WF centre and spread    4  ( -0.000000,  0.000000, -0.000000 )     2.04018412
  WF centre and spread    5  ( -0.000000,  0.000000,  0.000000 )     2.04050711
  WF centre and spread    6  (  0.000000, -0.000000, -0.000000 )     2.04050711
  WF centre and spread    7  ( -0.000000, -0.000000, -0.000000 )     2.04050711
  WF centre and spread    8  (  0.000000, -0.000000,  0.000000 )     2.04050711
  WF centre and spread    9  ( -0.000000,  0.000000, -0.000000 )     0.76441081
  WF centre and spread   10  ( -0.000000, -0.000000, -0.000000 )     0.76441081
  WF centre and spread   11  (  0.000000,  0.000000, -0.000000 )     0.74645739
  WF centre and spread   12  ( -0.000000,  0.000000,  0.000000 )     0.74645739
  WF centre and spread   13  ( -0.000000,  0.000000, -0.000000 )     0.74645739
  WF centre and spread   14  (  0.000000,  0.000000,  0.000000 )     0.74645739
  WF centre and spread   15  (  0.000000,  0.000000,  0.000000 )     0.76442769
  WF centre and spread   16  ( -0.000000,  0.000000, -0.000000 )     0.76442769
  WF centre and spread   17  (  0.000000,  0.000000,  0.000000 )     0.74646395
  WF centre and spread   18  ( -0.000000,  0.000000,  0.000000 )     0.74646395
  Sum of centres and spreads ( -0.000000,  0.000000,  0.000000 )    22.73215147
 
      3    -0.905E-02     0.0780108255       22.7321514709       0.14  <-- CONV
        O_D=      0.0012217 O_OD=     10.4733816 O_TOT=     22.7321515 <-- SPRD
 Delta: O_D= -0.2515668E-03 O_OD= -0.8793817E-02 O_TOT= -0.9045384E-02 <-- DLTA
 ------------------------------------------------------------------------------
 Cycle:      4
  WF centre and spread    1  (  0.000000,  0.000000, -0.000000 )     1.47416293
  WF centre and spread    2  ( -0.000000,  0.000000,  0.000000 )     1.47416293
  WF centre and spread    3  ( -0.000000, -0.000000,  0.000000 )     2.04139220
  WF centre and spread    4  ( -0.000000,  0.000000, -0.000000 )     2.04139220
  WF centre and spread    5  ( -0.000000,  0.000000,  0.000000 )     2.04163089
  WF centre and spread    6  (  0.000000, -0.000000, -0.000000 )     2.04163088
  WF centre and spread    7  ( -0.000000, -0.000000, -0.000000 )     2.04163088
  WF centre and spread    8  (  0.000000, -0.000000,  0.000000 )     2.04163089
  WF centre and spread    9  ( -0.000000,  0.000000, -0.000000 )     0.76423683
  WF centre and spread   10  ( -0.000000, -0.000000,  0.000000 )     0.76423683
  WF centre and spread   11  (  0.000000,  0.000000, -0.000000 )     0.74595979
  WF centre and spread   12  ( -0.000000,  0.000000,  0.000000 )     0.74595979
  WF centre and spread   13  ( -0.000000,  0.000000, -0.000000 )     0.74595979
  WF centre and spread   14  (  0.000000,  0.000000,  0.000000 )     0.74595979
  WF centre and spread   15  (  0.000000,  0.000000,  0.000000 )     0.76423977
  WF centre and spread   16  ( -0.000000,  0.000000, -0.000000 )     0.76423977
  WF centre and spread   17  (  0.000000,  0.000000,  0.000000 )     0.74596729
  WF centre and spread   18  ( -0.000000,  0.000000,  0.000000 )     0.74596729
  Sum of centres and spreads ( -0.000000,  0.000000,  0.000000 )    22.73036077
 
      4    -0.179E-02     0.0313532919       22.7303607688       0.15  <-- CONV
        O_D=      0.0011979 O_OD=     10.4716147 O_TOT=     22.7303608 <-- SPRD
 Delta: O_D= -0.2383509E-04 O_OD= -0.1766867E-02 O_TOT= -0.1790702E-02 <-- DLTA
 ------------------------------------------------------------------------------
 Cycle:      5
  WF centre and spread    1  (  0.000000,  0.000000, -0.000000 )     1.47327522
  WF centre and spread    2  ( -0.000000,  0.000000,  0.000000 )     1.47327522
  WF centre and spread    3  ( -0.000000, -0.000000,  0.000000 )     2.04201274
  WF centre and spread    4  ( -0.000000,  0.000000, -0.000000 )     2.04201274
  WF centre and spread    5  ( -0.000000,  0.000000,  0.000000 )     2.04220053
  WF centre and spread    6  (  0.000000, -0.000000, -0.000000 )     2.04220053
  WF centre and spread    7  ( -0.000000, -0.000000, -0.000000 )     2.04220053
  WF centre and spread    8  (  0.000000, -0.000000,  0.000000 )     2.04220053
  WF centre and spread    9  (  0.000000,  0.000000, -0.000000 )     0.76417268
  WF centre and spread   10  ( -0.000000, -0.000000,  0.000000 )     0.76417268
  WF centre and spread   11  (  0.000000,  0.000000, -0.000000 )     0.74564679
  WF centre and spread   12  ( -0.000000,  0.000000,  0.000000 )     0.74564679
  WF centre and spread   13  ( -0.000000,  0.000000, -0.000000 )     0.74564679
  WF centre and spread   14  (  0.000000,  0.000000,  0.000000 )     0.74564679
  WF centre and spread   15  (  0.000000,  0.000000,  0.000000 )     0.76417850
  WF centre and spread   16  ( -0.000000,  0.000000, -0.000000 )     0.76417850
  WF centre and spread   17  (  0.000000,  0.000000,  0.000000 )     0.74565574
  WF centre and spread   18  ( -0.000000,  0.000000,  0.000000 )     0.74565574
  Sum of centres and spreads ( -0.000000,  0.000000,  0.000000 )    22.72997903
 
      5    -0.382E-03     0.0157674630       22.7299790290       0.15  <-- CONV
        O_D=      0.0011346 O_OD=     10.4712962 O_TOT=     22.7299790 <-- SPRD
 Delta: O_D= -0.6321875E-04 O_OD= -0.3185211E-03 O_TOT= -0.3817399E-03 <-- DLTA
 ------------------------------------------------------------------------------
 Cycle:      6
  WF centre and spread    1  (  0.000000,  0.000000, -0.000000 )     1.47313207
  WF centre and spread    2  ( -0.000000,  0.000000,  0.000000 )     1.47313207
  WF centre and spread    3  ( -0.000000, -0.000000,  0.000000 )     2.04221557
  WF centre and spread    4  ( -0.000000,  0.000000, -0.000000 )     2.04221557
  WF centre and spread    5  ( -0.000000,  0.000000,  0.000000 )     2.04239798
  WF centre and spread    6  (  0.000000, -0.000000, -0.000000 )     2.04239798
  WF centre and spread    7  ( -0.000000, -0.000000, -0.000000 )     2.04239798
  WF centre and spread    8  (  0.000000, -0.000000,  0.000000 )     2.04239798
  WF centre and spread    9  (  0.000000,  0.000000, -0.000000 )     0.76414254
  WF centre and spread   10  ( -0.000000,  0.000000,  0.000000 )     0.76414254
  WF centre and spread   11  (  0.000000, -0.000000, -0.000000 )     0.74550329
  WF centre and spread   12  ( -0.000000,  0.000000,  0.000000 )     0.74550329
  WF centre and spread   13  ( -0.000000,  0.000000, -0.000000 )     0.74550329
  WF centre and spread   14  (  0.000000,  0.000000,  0.000000 )     0.74550329
  WF centre and spread   15  (  0.000000,  0.000000,  0.000000 )     0.76414952
  WF centre and spread   16  ( -0.000000,  0.000000, -0.000000 )     0.76414952
  WF centre and spread   17  (  0.000000, -0.000000,  0.000000 )     0.74551211
  WF centre and spread   18  ( -0.000000,  0.000000,  0.000000 )     0.74551211
  Sum of centres and spreads ( -0.000000,  0.000000,  0.000000 )    22.72990871
 
      6    -0.703E-04     0.0070140433       22.7299087106       0.15  <-- CONV
        O_D=      0.0011303 O_OD=     10.4712302 O_TOT=     22.7299087 <-- SPRD
 Delta: O_D= -0.4345326E-05 O_OD= -0.6597303E-04 O_TOT= -0.7031835E-04 <-- DLTA
 ------------------------------------------------------------------------------
 Cycle:      7
  WF centre and spread    1  (  0.000000,  0.000000, -0.000000 )     1.47321559
  WF centre and spread    2  ( -0.000000,  0.000000,  0.000000 )     1.47321559
  WF centre and spread    3  ( -0.000000, -0.000000,  0.000000 )     2.04223449
  WF centre and spread    4  ( -0.000000,  0.000000, -0.000000 )     2.04223449
  WF centre and spread    5  ( -0.000000,  0.000000,  0.000000 )     2.04242401
  WF centre and spread    6  (  0.000000, -0.000000, -0.000000 )     2.04242401
  WF centre and spread    7  ( -0.000000, -0.000000, -0.000000 )     2.04242401
  WF centre and spread    8  (  0.000000, -0.000000,  0.000000 )     2.04242401
  WF centre and spread    9  (  0.000000,  0.000000, -0.000000 )     0.76413149
  WF centre and spread   10  ( -0.000000,  0.000000,  0.000000 )     0.76413149
  WF centre and spread   11  (  0.000000, -0.000000, -0.000000 )     0.74545700
  WF centre and spread   12  ( -0.000000,  0.000000,  0.000000 )     0.74545700
  WF centre and spread   13  ( -0.000000,  0.000000, -0.000000 )     0.74545700
  WF centre and spread   14  (  0.000000, -0.000000,  0.000000 )     0.74545700
  WF centre and spread   15  (  0.000000,  0.000000,  0.000000 )     0.76414032
  WF centre and spread   16  ( -0.000000,  0.000000, -0.000000 )     0.76414032
  WF centre and spread   17  (  0.000000, -0.000000,  0.000000 )     0.74546565
  WF centre and spread   18  ( -0.000000,  0.000000,  0.000000 )     0.74546565
  Sum of centres and spreads ( -0.000000,  0.000000,  0.000000 )    22.72989908
 
      7    -0.963E-05     0.0024187727       22.7298990799       0.15  <-- CONV
        O_D=      0.0011295 O_OD=     10.4712214 O_TOT=     22.7298991 <-- SPRD
 Delta: O_D= -0.8310418E-06 O_OD= -0.8799698E-05 O_TOT= -0.9630740E-05 <-- DLTA
 ------------------------------------------------------------------------------
 Cycle:      8
  WF centre and spread    1  (  0.000000,  0.000000, -0.000000 )     1.47326176
  WF centre and spread    2  ( -0.000000,  0.000000,  0.000000 )     1.47326176
  WF centre and spread    3  ( -0.000000, -0.000000,  0.000000 )     2.04225897
  WF centre and spread    4  ( -0.000000,  0.000000, -0.000000 )     2.04225897
  WF centre and spread    5  ( -0.000000,  0.000000,  0.000000 )     2.04245490
  WF centre and spread    6  (  0.000000, -0.000000, -0.000000 )     2.04245490
  WF centre and spread    7  ( -0.000000, -0.000000, -0.000000 )     2.04245490
  WF centre and spread    8  (  0.000000, -0.000000,  0.000000 )     2.04245490
  WF centre and spread    9  (  0.000000,  0.000000, -0.000000 )     0.76412294
  WF centre and spread   10  ( -0.000000,  0.000000,  0.000000 )     0.76412294
  WF centre and spread   11  (  0.000000, -0.000000, -0.000000 )     0.74541757
  WF centre and spread   12  (  0.000000,  0.000000,  0.000000 )     0.74541757
  WF centre and spread   13  ( -0.000000,  0.000000, -0.000000 )     0.74541757
  WF centre and spread   14  (  0.000000, -0.000000,  0.000000 )     0.74541757
  WF centre and spread   15  (  0.000000,  0.000000,  0.000000 )     0.76413306
  WF centre and spread   16  ( -0.000000,  0.000000, -0.000000 )     0.76413306
  WF centre and spread   17  (  0.000000, -0.000000,  0.000000 )     0.74542603
  WF centre and spread   18  ( -0.000000,  0.000000,  0.000000 )     0.74542603
  Sum of centres and spreads ( -0.000000,  0.000000,  0.000000 )    22.72989545
 
      8    -0.363E-05     0.0015636261       22.7298954521       0.15  <-- CONV
        O_D=      0.0011293 O_OD=     10.4712179 O_TOT=     22.7298955 <-- SPRD
 Delta: O_D= -0.1446857E-06 O_OD= -0.3483040E-05 O_TOT= -0.3627726E-05 <-- DLTA
 ------------------------------------------------------------------------------
 Cycle:      9
  WF centre and spread    1  (  0.000000,  0.000000, -0.000000 )     1.47326453
  WF centre and spread    2  ( -0.000000,  0.000000,  0.000000 )     1.47326453
  WF centre and spread    3  ( -0.000000, -0.000000,  0.000000 )     2.04227659
  WF centre and spread    4  ( -0.000000,  0.000000, -0.000000 )     2.04227659
  WF centre and spread    5  ( -0.000000,  0.000000,  0.000000 )     2.04247612
  WF centre and spread    6  (  0.000000, -0.000000, -0.000000 )     2.04247612
  WF centre and spread    7  ( -0.000000, -0.000000, -0.000000 )     2.04247612
  WF centre and spread    8  (  0.000000, -0.000000,  0.000000 )     2.04247612
  WF centre and spread    9  (  0.000000,  0.000000, -0.000000 )     0.76411997
  WF centre and spread   10  ( -0.000000,  0.000000,  0.000000 )     0.76411997
  WF centre and spread   11  (  0.000000, -0.000000, -0.000000 )     0.74539840
  WF centre and spread   12  (  0.000000,  0.000000,  0.000000 )     0.74539840
  WF centre and spread   13  ( -0.000000,  0.000000, -0.000000 )     0.74539840
  WF centre and spread   14  (  0.000000, -0.000000,  0.000000 )     0.74539840
  WF centre and spread   15  (  0.000000,  0.000000,  0.000000 )     0.76413038
  WF centre and spread   16  ( -0.000000,  0.000000, -0.000000 )     0.76413038
  WF centre and spread   17  (  0.000000, -0.000000,  0.000000 )     0.74540673
  WF centre and spread   18  ( -0.000000,  0.000000,  0.000000 )     0.74540673
  Sum of centres and spreads ( -0.000000,  0.000000,  0.000000 )    22.72989446
 
      9    -0.988E-06     0.0007819193       22.7298944645       0.15  <-- CONV
        O_D=      0.0011294 O_OD=     10.4712169 O_TOT=     22.7298945 <-- SPRD
 Delta: O_D=  0.6011423E-07 O_OD= -0.1047795E-05 O_TOT= -0.9876810E-06 <-- DLTA
 ------------------------------------------------------------------------------
 Cycle:     10
  WF centre and spread    1  (  0.000000,  0.000000, -0.000000 )     1.47326500
  WF centre and spread    2  ( -0.000000,  0.000000,  0.000000 )     1.47326500
  WF centre and spread    3  ( -0.000000, -0.000000,  0.000000 )     2.04227980
  WF centre and spread    4  ( -0.000000,  0.000000, -0.000000 )     2.04227980
  WF centre and spread    5  ( -0.000000,  0.000000,  0.000000 )     2.04248161
  WF centre and spread    6  (  0.000000, -0.000000, -0.000000 )     2.04248160
  WF centre and spread    7  ( -0.000000, -0.000000, -0.000000 )     2.04248160
  WF centre and spread    8  (  0.000000, -0.000000,  0.000000 )     2.04248161
  WF centre and spread    9  (  0.000000,  0.000000, -0.000000 )     0.76411978
  WF centre and spread   10  ( -0.000000,  0.000000,  0.000000 )     0.76411978
  WF centre and spread   11  (  0.000000, -0.000000, -0.000000 )     0.74539370
  WF centre and spread   12  (  0.000000,  0.000000,  0.000000 )     0.74539370
  WF centre and spread   13  ( -0.000000,  0.000000,  0.000000 )     0.74539370
  WF centre and spread   14  (  0.000000, -0.000000,  0.000000 )     0.74539370
  WF centre and spread   15  (  0.000000,  0.000000,  0.000000 )     0.76412998
  WF centre and spread   16  ( -0.000000,  0.000000, -0.000000 )     0.76412998
  WF centre and spread   17  (  0.000000, -0.000000,  0.000000 )     0.74540198
  WF centre and spread   18  ( -0.000000,  0.000000,  0.000000 )     0.74540198
  Sum of centres and spreads ( -0.000000,  0.000000,  0.000000 )    22.72989433
 
     10    -0.138E-06     0.0002783933       22.7298943267       0.16  <-- CONV
        O_D=      0.0011295 O_OD=     10.4712167 O_TOT=     22.7298943 <-- SPRD
 Delta: O_D=  0.1069349E-06 O_OD= -0.2447468E-06 O_TOT= -0.1378119E-06 <-- DLTA
 ------------------------------------------------------------------------------
 Cycle:     11
  WF centre and spread    1  (  0.000000,  0.000000, -0.000000 )     1.47326673
  WF centre and spread    2  ( -0.000000,  0.000000,  0.000000 )     1.47326673
  WF centre and spread    3  ( -0.000000, -0.000000,  0.000000 )     2.04227820
  WF centre and spread    4  ( -0.000000,  0.000000, -0.000000 )     2.04227820
  WF centre and spread    5  ( -0.000000,  0.000000,  0.000000 )     2.04248318
  WF centre and spread    6  (  0.000000, -0.000000, -0.000000 )     2.04248318
  WF centre and spread    7  ( -0.000000, -0.000000, -0.000000 )     2.04248318
  WF centre and spread    8  (  0.000000, -0.000000,  0.000000 )     2.04248318
  WF centre and spread    9  (  0.000000,  0.000000, -0.000000 )     0.76411967
  WF centre and spread   10  ( -0.000000,  0.000000,  0.000000 )     0.76411967
  WF centre and spread   11  (  0.000000, -0.000000, -0.000000 )     0.74539273
  WF centre and spread   12  (  0.000000,  0.000000,  0.000000 )     0.74539273
  WF centre and spread   13  ( -0.000000,  0.000000,  0.000000 )     0.74539273
  WF centre and spread   14  (  0.000000, -0.000000,  0.000000 )     0.74539273
  WF centre and spread   15  (  0.000000,  0.000000,  0.000000 )     0.76412970
  WF centre and spread   16  ( -0.000000,  0.000000, -0.000000 )     0.76412970
  WF centre and spread   17  (  0.000000, -0.000000,  0.000000 )     0.74540102
  WF centre and spread   18  ( -0.000000,  0.000000,  0.000000 )     0.74540102
  Sum of centres and spreads ( -0.000000,  0.000000,  0.000000 )    22.72989429
 
     11    -0.374E-07     0.0001358325       22.7298942893       0.16  <-- CONV
        O_D=      0.0011296 O_OD=     10.4712165 O_TOT=     22.7298943 <-- SPRD
 Delta: O_D=  0.1404481E-06 O_OD= -0.1778016E-06 O_TOT= -0.3735341E-07 <-- DLTA
 ------------------------------------------------------------------------------
 Cycle:     12
  WF centre and spread    1  (  0.000000,  0.000000, -0.000000 )     1.47326818
  WF centre and spread    2  ( -0.000000,  0.000000,  0.000000 )     1.47326818
  WF centre and spread    3  ( -0.000000, -0.000000,  0.000000 )     2.04227482
  WF centre and spread    4  ( -0.000000,  0.000000, -0.000000 )     2.04227482
  WF centre and spread    5  ( -0.000000,  0.000000,  0.000000 )     2.04248476
  WF centre and spread    6  (  0.000000, -0.000000, -0.000000 )     2.04248476
  WF centre and spread    7  ( -0.000000, -0.000000, -0.000000 )     2.04248476
  WF centre and spread    8  (  0.000000, -0.000000,  0.000000 )     2.04248476
  WF centre and spread    9  (  0.000000,  0.000000, -0.000000 )     0.76411945
  WF centre and spread   10  ( -0.000000,  0.000000,  0.000000 )     0.76411945
  WF centre and spread   11  (  0.000000, -0.000000, -0.000000 )     0.74539245
  WF centre and spread   12  (  0.000000,  0.000000,  0.000000 )     0.74539245
  WF centre and spread   13  ( -0.000000,  0.000000,  0.000000 )     0.74539245
  WF centre and spread   14  (  0.000000, -0.000000, -0.000000 )     0.74539245
  WF centre and spread   15  (  0.000000,  0.000000,  0.000000 )     0.76412949
  WF centre and spread   16  ( -0.000000,  0.000000, -0.000000 )     0.76412949
  WF centre and spread   17  (  0.000000, -0.000000,  0.000000 )     0.74540078
  WF centre and spread   18  ( -0.000000,  0.000000,  0.000000 )     0.74540078
  Sum of centres and spreads ( -0.000000, -0.000000,  0.000000 )    22.72989427
 
     12    -0.179E-07     0.0000861297       22.7298942714       0.16  <-- CONV
        O_D=      0.0011295 O_OD=     10.4712166 O_TOT=     22.7298943 <-- SPRD
 Delta: O_D= -0.1043157E-06 O_OD=  0.8638438E-07 O_TOT= -0.1793128E-07 <-- DLTA
 ------------------------------------------------------------------------------
 Cycle:     13
  WF centre and spread    1  (  0.000000,  0.000000, -0.000000 )     1.47326891
  WF centre and spread    2  ( -0.000000,  0.000000,  0.000000 )     1.47326891
  WF centre and spread    3  ( -0.000000, -0.000000,  0.000000 )     2.04227282
  WF centre and spread    4  ( -0.000000,  0.000000, -0.000000 )     2.04227282
  WF centre and spread    5  ( -0.000000,  0.000000,  0.000000 )     2.04248540
  WF centre and spread    6  (  0.000000, -0.000000, -0.000000 )     2.04248540
  WF centre and spread    7  ( -0.000000, -0.000000, -0.000000 )     2.04248540
  WF centre and spread    8  (  0.000000, -0.000000,  0.000000 )     2.04248540
  WF centre and spread    9  (  0.000000,  0.000000, -0.000000 )     0.76411944
  WF centre and spread   10  ( -0.000000,  0.000000,  0.000000 )     0.76411944
  WF centre and spread   11  (  0.000000, -0.000000, -0.000000 )     0.74539242
  WF centre and spread   12  (  0.000000,  0.000000,  0.000000 )     0.74539242
  WF centre and spread   13  ( -0.000000,  0.000000,  0.000000 )     0.74539242
  WF centre and spread   14  (  0.000000, -0.000000, -0.000000 )     0.74539242
  WF centre and spread   15  (  0.000000,  0.000000,  0.000000 )     0.76412955
  WF centre and spread   16  ( -0.000000,  0.000000, -0.000000 )     0.76412955
  WF centre and spread   17  (  0.000000, -0.000000,  0.000000 )     0.74540077
  WF centre and spread   18  ( -0.000000,  0.000000,  0.000000 )     0.74540077
  Sum of centres and spreads ( -0.000000, -0.000000,  0.000000 )    22.72989426
 
     13    -0.108E-07     0.0000786630       22.7298942606       0.16  <-- CONV
        O_D=      0.0011295 O_OD=     10.4712165 O_TOT=     22.7298943 <-- SPRD
 Delta: O_D=  0.4809451E-08 O_OD= -0.1561540E-07 O_TOT= -0.1080595E-07 <-- DLTA
 ------------------------------------------------------------------------------
 Cycle:     14
  WF centre and spread    1  (  0.000000,  0.000000, -0.000000 )     1.47327087
  WF centre and spread    2  ( -0.000000,  0.000000,  0.000000 )     1.47327087
  WF centre and spread    3  ( -0.000000, -0.000000,  0.000000 )     2.04226327
  WF centre and spread    4  ( -0.000000,  0.000000, -0.000000 )     2.04226327
  WF centre and spread    5  ( -0.000000,  0.000000,  0.000000 )     2.04248834
  WF centre and spread    6  (  0.000000, -0.000000, -0.000000 )     2.04248834
  WF centre and spread    7  ( -0.000000, -0.000000, -0.000000 )     2.04248834
  WF centre and spread    8  (  0.000000, -0.000000,  0.000000 )     2.04248834
  WF centre and spread    9  (  0.000000,  0.000000, -0.000000 )     0.76411947
  WF centre and spread   10  ( -0.000000,  0.000000,  0.000000 )     0.76411947
  WF centre and spread   11  (  0.000000, -0.000000, -0.000000 )     0.74539283
  WF centre and spread   12  (  0.000000,  0.000000,  0.000000 )     0.74539283
  WF centre and spread   13  ( -0.000000,  0.000000,  0.000000 )     0.74539283
  WF centre and spread   14  (  0.000000, -0.000000, -0.000000 )     0.74539283
  WF centre and spread   15  (  0.000000,  0.000000,  0.000000 )     0.76412987
  WF centre and spread   16  ( -0.000000,  0.000000, -0.000000 )     0.76412987
  WF centre and spread   17  (  0.000000, -0.000000,  0.000000 )     0.74540129
  WF centre and spread   18  ( -0.000000,  0.000000,  0.000000 )     0.74540129
  Sum of centres and spreads ( -0.000000, -0.000000,  0.000000 )    22.72989424
 
     14    -0.244E-07     0.0000728523       22.7298942361       0.16  <-- CONV
        O_D=      0.0011293 O_OD=     10.4712167 O_TOT=     22.7298942 <-- SPRD
 Delta: O_D= -0.1948242E-06 O_OD=  0.1703953E-06 O_TOT= -0.2442886E-07 <-- DLTA
 ------------------------------------------------------------------------------
 Cycle:     15
  WF centre and spread    1  (  0.000000,  0.000000, -0.000000 )     1.47326965
  WF centre and spread    2  ( -0.000000,  0.000000,  0.000000 )     1.47326965
  WF centre and spread    3  ( -0.000000, -0.000000,  0.000000 )     2.04222786
  WF centre and spread    4  ( -0.000000,  0.000000, -0.000000 )     2.04222786
  WF centre and spread    5  ( -0.000000,  0.000000,  0.000000 )     2.04250084
  WF centre and spread    6  (  0.000000, -0.000000, -0.000000 )     2.04250084
  WF centre and spread    7  ( -0.000000, -0.000000, -0.000000 )     2.04250084
  WF centre and spread    8  (  0.000000, -0.000000,  0.000000 )     2.04250084
  WF centre and spread    9  (  0.000000,  0.000000, -0.000000 )     0.76412073
  WF centre and spread   10  ( -0.000000,  0.000000,  0.000000 )     0.76412073
  WF centre and spread   11  (  0.000000, -0.000000, -0.000000 )     0.74539554
  WF centre and spread   12  (  0.000000,  0.000000,  0.000000 )     0.74539554
  WF centre and spread   13  ( -0.000000,  0.000000,  0.000000 )     0.74539554
  WF centre and spread   14  (  0.000000, -0.000000, -0.000000 )     0.74539554
  WF centre and spread   15  (  0.000000,  0.000000,  0.000000 )     0.76413168
  WF centre and spread   16  ( -0.000000,  0.000000, -0.000000 )     0.76413168
  WF centre and spread   17  (  0.000000, -0.000000,  0.000000 )     0.74540440
  WF centre and spread   18  ( -0.000000,  0.000000,  0.000000 )     0.74540440
  Sum of centres and spreads (  0.000000, -0.000000,  0.000000 )    22.72989416
 
     15    -0.749E-07     0.0001010823       22.7298941613       0.17  <-- CONV
        O_D=      0.0011290 O_OD=     10.4712169 O_TOT=     22.7298942 <-- SPRD
 Delta: O_D= -0.3066266E-06 O_OD=  0.2317466E-06 O_TOT= -0.7488006E-07 <-- DLTA
 ------------------------------------------------------------------------------
 Cycle:     16
  WF centre and spread    1  (  0.000000,  0.000000, -0.000000 )     1.47326771
  WF centre and spread    2  ( -0.000000,  0.000000,  0.000000 )     1.47326771
  WF centre and spread    3  ( -0.000000, -0.000000,  0.000000 )     2.04222814
  WF centre and spread    4  ( -0.000000,  0.000000, -0.000000 )     2.04222814
  WF centre and spread    5  ( -0.000000,  0.000000,  0.000000 )     2.04250293
  WF centre and spread    6  (  0.000000, -0.000000, -0.000000 )     2.04250293
  WF centre and spread    7  ( -0.000000, -0.000000, -0.000000 )     2.04250293
  WF centre and spread    8  (  0.000000, -0.000000,  0.000000 )     2.04250293
  WF centre and spread    9  (  0.000000,  0.000000, -0.000000 )     0.76412144
  WF centre and spread   10  ( -0.000000,  0.000000,  0.000000 )     0.76412144
  WF centre and spread   11  (  0.000000, -0.000000, -0.000000 )     0.74539430
  WF centre and spread   12  (  0.000000,  0.000000,  0.000000 )     0.74539430
  WF centre and spread   13  ( -0.000000,  0.000000,  0.000000 )     0.74539430
  WF centre and spread   14  (  0.000000, -0.000000, -0.000000 )     0.74539430
  WF centre and spread   15  (  0.000000,  0.000000,  0.000000 )     0.76413215
  WF centre and spread   16  ( -0.000000,  0.000000, -0.000000 )     0.76413215
  WF centre and spread   17  (  0.000000, -0.000000,  0.000000 )     0.74540316
  WF centre and spread   18  ( -0.000000,  0.000000,  0.000000 )     0.74540316
  Sum of centres and spreads (  0.000000, -0.000000,  0.000000 )    22.72989411
 
     16    -0.554E-07     0.0001911313       22.7298941059       0.17  <-- CONV
        O_D=      0.0011292 O_OD=     10.4712168 O_TOT=     22.7298941 <-- SPRD
 Delta: O_D=  0.1270590E-06 O_OD= -0.1824344E-06 O_TOT= -0.5537535E-07 <-- DLTA
 ------------------------------------------------------------------------------
 Cycle:     17
  WF centre and spread    1  (  0.000000,  0.000000, -0.000000 )     1.47326638
  WF centre and spread    2  ( -0.000000,  0.000000,  0.000000 )     1.47326638
  WF centre and spread    3  ( -0.000000, -0.000000,  0.000000 )     2.04222758
  WF centre and spread    4  ( -0.000000,  0.000000, -0.000000 )     2.04222758
  WF centre and spread    5  ( -0.000000,  0.000000,  0.000000 )     2.04250574
  WF centre and spread    6  (  0.000000, -0.000000, -0.000000 )     2.04250574
  WF centre and spread    7  ( -0.000000, -0.000000, -0.000000 )     2.04250574
  WF centre and spread    8  (  0.000000, -0.000000,  0.000000 )     2.04250574
  WF centre and spread    9  (  0.000000,  0.000000, -0.000000 )     0.76412182
  WF centre and spread   10  ( -0.000000,  0.000000,  0.000000 )     0.76412182
  WF centre and spread   11  (  0.000000, -0.000000, -0.000000 )     0.74539284
  WF centre and spread   12  (  0.000000,  0.000000,  0.000000 )     0.74539284
  WF centre and spread   13  ( -0.000000,  0.000000,  0.000000 )     0.74539284
  WF centre and spread   14  (  0.000000, -0.000000, -0.000000 )     0.74539284
  WF centre and spread   15  (  0.000000,  0.000000,  0.000000 )     0.76413236
  WF centre and spread   16  ( -0.000000,  0.000000, -0.000000 )     0.76413236
  WF centre and spread   17  (  0.000000, -0.000000,  0.000000 )     0.74540175
  WF centre and spread   18  ( -0.000000,  0.000000,  0.000000 )     0.74540175
  Sum of centres and spreads (  0.000000, -0.000000,  0.000000 )    22.72989408
 
     17    -0.232E-07     0.0001044305       22.7298940827       0.17  <-- CONV
        O_D=      0.0011291 O_OD=     10.4712168 O_TOT=     22.7298941 <-- SPRD
 Delta: O_D= -0.4078777E-07 O_OD=  0.1756699E-07 O_TOT= -0.2322079E-07 <-- DLTA
 ------------------------------------------------------------------------------
 Cycle:     18
  WF centre and spread    1  (  0.000000,  0.000000, -0.000000 )     1.47326706
  WF centre and spread    2  ( -0.000000,  0.000000,  0.000000 )     1.47326706
  WF centre and spread    3  ( -0.000000, -0.000000,  0.000000 )     2.04222618
  WF centre and spread    4  ( -0.000000,  0.000000, -0.000000 )     2.04222618
  WF centre and spread    5  ( -0.000000,  0.000000,  0.000000 )     2.04250819
  WF centre and spread    6  (  0.000000, -0.000000, -0.000000 )     2.04250818
  WF centre and spread    7  ( -0.000000, -0.000000, -0.000000 )     2.04250818
  WF centre and spread    8  (  0.000000, -0.000000,  0.000000 )     2.04250819
  WF centre and spread    9  (  0.000000,  0.000000, -0.000000 )     0.76412162
  WF centre and spread   10  ( -0.000000,  0.000000,  0.000000 )     0.76412162
  WF centre and spread   11  (  0.000000,  0.000000, -0.000000 )     0.74539156
  WF centre and spread   12  (  0.000000,  0.000000,  0.000000 )     0.74539156
  WF centre and spread   13  ( -0.000000,  0.000000,  0.000000 )     0.74539156
  WF centre and spread   14  (  0.000000, -0.000000, -0.000000 )     0.74539156
  WF centre and spread   15  (  0.000000,  0.000000,  0.000000 )     0.76413218
  WF centre and spread   16  ( -0.000000,  0.000000, -0.000000 )     0.76413218
  WF centre and spread   17  (  0.000000, -0.000000,  0.000000 )     0.74540051
  WF centre and spread   18  ( -0.000000,  0.000000,  0.000000 )     0.74540051
  Sum of centres and spreads (  0.000000, -0.000000,  0.000000 )    22.72989407
 
     18    -0.103E-07     0.0000745372       22.7298940723       0.17  <-- CONV
        O_D=      0.0011291 O_OD=     10.4712168 O_TOT=     22.7298941 <-- SPRD
 Delta: O_D= -0.9454999E-08 O_OD= -0.8786252E-09 O_TOT= -0.1033363E-07 <-- DLTA
 ------------------------------------------------------------------------------
 Cycle:     19
  WF centre and spread    1  (  0.000000,  0.000000, -0.000000 )     1.47327365
  WF centre and spread    2  ( -0.000000,  0.000000,  0.000000 )     1.47327365
  WF centre and spread    3  ( -0.000000, -0.000000,  0.000000 )     2.04221686
  WF centre and spread    4  ( -0.000000,  0.000000, -0.000000 )     2.04221686
  WF centre and spread    5  ( -0.000000,  0.000000,  0.000000 )     2.04251749
  WF centre and spread    6  (  0.000000, -0.000000, -0.000000 )     2.04251749
  WF centre and spread    7  ( -0.000000, -0.000000, -0.000000 )     2.04251749
  WF centre and spread    8  (  0.000000, -0.000000,  0.000000 )     2.04251749
  WF centre and spread    9  (  0.000000,  0.000000, -0.000000 )     0.76412036
  WF centre and spread   10  ( -0.000000,  0.000000,  0.000000 )     0.76412036
  WF centre and spread   11  (  0.000000,  0.000000, -0.000000 )     0.74538691
  WF centre and spread   12  (  0.000000,  0.000000,  0.000000 )     0.74538691
  WF centre and spread   13  ( -0.000000,  0.000000,  0.000000 )     0.74538691
  WF centre and spread   14  (  0.000000, -0.000000, -0.000000 )     0.74538691
  WF centre and spread   15  (  0.000000,  0.000000,  0.000000 )     0.76413126
  WF centre and spread   16  ( -0.000000,  0.000000, -0.000000 )     0.76413126
  WF centre and spread   17  (  0.000000, -0.000000, -0.000000 )     0.74539609
  WF centre and spread   18  ( -0.000000,  0.000000,  0.000000 )     0.74539609
  Sum of centres and spreads (  0.000000, -0.000000,  0.000000 )    22.72989405
 
     19    -0.267E-07     0.0000616993       22.7298940456       0.17  <-- CONV
        O_D=      0.0011290 O_OD=     10.4712169 O_TOT=     22.7298940 <-- SPRD
 Delta: O_D= -0.1547858E-06 O_OD=  0.1280688E-06 O_TOT= -0.2671702E-07 <-- DLTA
 ------------------------------------------------------------------------------
 Cycle:     20
  WF centre and spread    1  (  0.000000,  0.000000, -0.000000 )     1.47327220
  WF centre and spread    2  ( -0.000000,  0.000000,  0.000000 )     1.47327220
  WF centre and spread    3  ( -0.000000, -0.000000,  0.000000 )     2.04221502
  WF centre and spread    4  ( -0.000000,  0.000000, -0.000000 )     2.04221502
  WF centre and spread    5  ( -0.000000,  0.000000,  0.000000 )     2.04251688
  WF centre and spread    6  (  0.000000, -0.000000, -0.000000 )     2.04251688
  WF centre and spread    7  ( -0.000000, -0.000000, -0.000000 )     2.04251688
  WF centre and spread    8  (  0.000000, -0.000000,  0.000000 )     2.04251688
  WF centre and spread    9  (  0.000000,  0.000000, -0.000000 )     0.76412094
  WF centre and spread   10  ( -0.000000,  0.000000,  0.000000 )     0.76412094
  WF centre and spread   11  (  0.000000,  0.000000, -0.000000 )     0.74538804
  WF centre and spread   12  (  0.000000,  0.000000,  0.000000 )     0.74538804
  WF centre and spread   13  ( -0.000000,  0.000000,  0.000000 )     0.74538804
  WF centre and spread   14  (  0.000000, -0.000000, -0.000000 )     0.74538804
  WF centre and spread   15  (  0.000000,  0.000000,  0.000000 )     0.76413179
  WF centre and spread   16  ( -0.000000,  0.000000, -0.000000 )     0.76413179
  WF centre and spread   17  (  0.000000, -0.000000, -0.000000 )     0.74539722
  WF centre and spread   18  ( -0.000000,  0.000000,  0.000000 )     0.74539722
  Sum of centres and spreads (  0.000000, -0.000000,  0.000000 )    22.72989403
 
     20    -0.172E-07     0.0001203456       22.7298940285       0.17  <-- CONV
        O_D=      0.0011289 O_OD=     10.4712169 O_TOT=     22.7298940 <-- SPRD
 Delta: O_D= -0.2494008E-07 O_OD=  0.7787159E-08 O_TOT= -0.1715292E-07 <-- DLTA
 ------------------------------------------------------------------------------
 Cycle:     21
  WF centre and spread    1  (  0.000000,  0.000000, -0.000000 )     1.47326935
  WF centre and spread    2  ( -0.000000,  0.000000,  0.000000 )     1.47326935
  WF centre and spread    3  ( -0.000000, -0.000000,  0.000000 )     2.04221062
  WF centre and spread    4  ( -0.000000,  0.000000, -0.000000 )     2.04221062
  WF centre and spread    5  ( -0.000000,  0.000000,  0.000000 )     2.04251591
  WF centre and spread    6  (  0.000000, -0.000000, -0.000000 )     2.04251591
  WF centre and spread    7  ( -0.000000, -0.000000, -0.000000 )     2.04251591
  WF centre and spread    8  (  0.000000, -0.000000,  0.000000 )     2.04251591
  WF centre and spread    9  (  0.000000,  0.000000, -0.000000 )     0.76412203
  WF centre and spread   10  ( -0.000000,  0.000000,  0.000000 )     0.76412203
  WF centre and spread   11  (  0.000000,  0.000000, -0.000000 )     0.74539038
  WF centre and spread   12  (  0.000000,  0.000000,  0.000000 )     0.74539038
  WF centre and spread   13  ( -0.000000,  0.000000,  0.000000 )     0.74539038
  WF centre and spread   14  (  0.000000, -0.000000, -0.000000 )     0.74539038
  WF centre and spread   15  (  0.000000,  0.000000,  0.000000 )     0.76413285
  WF centre and spread   16  ( -0.000000,  0.000000, -0.000000 )     0.76413285
  WF centre and spread   17  (  0.000000, -0.000000, -0.000000 )     0.74539957
  WF centre and spread   18  ( -0.000000,  0.000000,  0.000000 )     0.74539957
  Sum of centres and spreads (  0.000000, -0.000000,  0.000000 )    22.72989402
 
     21    -0.119E-07     0.0000695089       22.7298940166       0.18  <-- CONV
        O_D=      0.0011290 O_OD=     10.4712169 O_TOT=     22.7298940 <-- SPRD
 Delta: O_D=  0.4986476E-07 O_OD= -0.6176472E-07 O_TOT= -0.1189997E-07 <-- DLTA
 ------------------------------------------------------------------------------
 Cycle:     22
  WF centre and spread    1  (  0.000000,  0.000000, -0.000000 )     1.47326636
  WF centre and spread    2  ( -0.000000,  0.000000,  0.000000 )     1.47326636
  WF centre and spread    3  ( -0.000000, -0.000000,  0.000000 )     2.04220374
  WF centre and spread    4  ( -0.000000,  0.000000, -0.000000 )     2.04220374
  WF centre and spread    5  ( -0.000000,  0.000000,  0.000000 )     2.04251559
  WF centre and spread    6  (  0.000000, -0.000000, -0.000000 )     2.04251558
  WF centre and spread    7  ( -0.000000, -0.000000, -0.000000 )     2.04251559
  WF centre and spread    8  (  0.000000, -0.000000,  0.000000 )     2.04251559
  WF centre and spread    9  (  0.000000,  0.000000, -0.000000 )     0.76412318
  WF centre and spread   10  ( -0.000000,  0.000000,  0.000000 )     0.76412318
  WF centre and spread   11  (  0.000000,  0.000000, -0.000000 )     0.74539310
  WF centre and spread   12  (  0.000000,  0.000000,  0.000000 )     0.74539310
  WF centre and spread   13  (  0.000000,  0.000000,  0.000000 )     0.74539310
  WF centre and spread   14  (  0.000000, -0.000000, -0.000000 )     0.74539310
  WF centre and spread   15  (  0.000000,  0.000000,  0.000000 )     0.76413401
  WF centre and spread   16  ( -0.000000,  0.000000, -0.000000 )     0.76413401
  WF centre and spread   17  (  0.000000, -0.000000, -0.000000 )     0.74540234
  WF centre and spread   18  ( -0.000000,  0.000000,  0.000000 )     0.74540234
  Sum of centres and spreads (  0.000000, -0.000000,  0.000000 )    22.72989400
 
     22    -0.132E-07     0.0000722470       22.7298940033       0.18  <-- CONV
        O_D=      0.0011290 O_OD=     10.4712168 O_TOT=     22.7298940 <-- SPRD
 Delta: O_D=  0.2268612E-07 O_OD= -0.3590403E-07 O_TOT= -0.1321791E-07 <-- DLTA
 ------------------------------------------------------------------------------
 Cycle:     23
  WF centre and spread    1  (  0.000000,  0.000000, -0.000000 )     1.47326474
  WF centre and spread    2  ( -0.000000,  0.000000,  0.000000 )     1.47326474
  WF centre and spread    3  ( -0.000000, -0.000000,  0.000000 )     2.04219479
  WF centre and spread    4  ( -0.000000,  0.000000, -0.000000 )     2.04219479
  WF centre and spread    5  ( -0.000000,  0.000000,  0.000000 )     2.04251778
  WF centre and spread    6  (  0.000000, -0.000000, -0.000000 )     2.04251778
  WF centre and spread    7  ( -0.000000, -0.000000, -0.000000 )     2.04251778
  WF centre and spread    8  (  0.000000, -0.000000,  0.000000 )     2.04251778
  WF centre and spread    9  (  0.000000,  0.000000, -0.000000 )     0.76412386
  WF centre and spread   10  ( -0.000000,  0.000000,  0.000000 )     0.76412386
  WF centre and spread   11  (  0.000000,  0.000000, -0.000000 )     0.74539462
  WF centre and spread   12  (  0.000000,  0.000000,  0.000000 )     0.74539462
  WF centre and spread   13  (  0.000000,  0.000000,  0.000000 )     0.74539462
  WF centre and spread   14  ( -0.000000, -0.000000, -0.000000 )     0.74539462
  WF centre and spread   15  (  0.000000,  0.000000,  0.000000 )     0.76413481
  WF centre and spread   16  ( -0.000000,  0.000000, -0.000000 )     0.76413481
  WF centre and spread   17  (  0.000000, -0.000000, -0.000000 )     0.74540399
  WF centre and spread   18  ( -0.000000,  0.000000,  0.000000 )     0.74540399
  Sum of centres and spreads (  0.000000, -0.000000,  0.000000 )    22.72989399
 
     23    -0.159E-07     0.0000742604       22.7298939874       0.18  <-- CONV
        O_D=      0.0011288 O_OD=     10.4712170 O_TOT=     22.7298940 <-- SPRD
 Delta: O_D= -0.1504242E-06 O_OD=  0.1345276E-06 O_TOT= -0.1589657E-07 <-- DLTA
 ------------------------------------------------------------------------------
 Cycle:     24
  WF centre and spread    1  (  0.000001,  0.000000, -0.000001 )     1.47326298
  WF centre and spread    2  ( -0.000001,  0.000000,  0.000000 )     1.47326298
  WF centre and spread    3  ( -0.000000, -0.000000,  0.000001 )     2.04216529
  WF centre and spread    4  ( -0.000000,  0.000000, -0.000000 )     2.04216529
  WF centre and spread    5  ( -0.000001,  0.000000,  0.000000 )     2.04253305
  WF centre and spread    6  (  0.000002, -0.000000, -0.000000 )     2.04253305
  WF centre and spread    7  ( -0.000000, -0.000000, -0.000000 )     2.04253305
  WF centre and spread    8  (  0.000000, -0.000001,  0.000000 )     2.04253305
  WF centre and spread    9  (  0.000000,  0.000000, -0.000000 )     0.76412487
  WF centre and spread   10  ( -0.000000,  0.000000,  0.000000 )     0.76412487
  WF centre and spread   11  (  0.000000,  0.000000, -0.000000 )     0.74539384
  WF centre and spread   12  (  0.000000,  0.000000,  0.000000 )     0.74539384
  WF centre and spread   13  (  0.000000,  0.000000,  0.000000 )     0.74539384
  WF centre and spread   14  ( -0.000000, -0.000000, -0.000000 )     0.74539384
  WF centre and spread   15  (  0.000000,  0.000000,  0.000000 )     0.76413629
  WF centre and spread   16  ( -0.000000,  0.000000, -0.000000 )     0.76413629
  WF centre and spread   17  (  0.000000, -0.000000, -0.000000 )     0.74540375
  WF centre and spread   18  ( -0.000000,  0.000000,  0.000000 )     0.74540375
  Sum of centres and spreads (  0.000000, -0.000000,  0.000000 )    22.72989393
 
     24    -0.550E-07     0.0000986942       22.7298939324       0.18  <-- CONV
        O_D=      0.0011284 O_OD=     10.4712174 O_TOT=     22.7298939 <-- SPRD
 Delta: O_D= -0.4598270E-06 O_OD=  0.4048350E-06 O_TOT= -0.5499197E-07 <-- DLTA
 ------------------------------------------------------------------------------
 Cycle:     25
  WF centre and spread    1  (  0.000001,  0.000000, -0.000001 )     1.47326356
  WF centre and spread    2  ( -0.000001,  0.000000,  0.000000 )     1.47326356
  WF centre and spread    3  ( -0.000000, -0.000000,  0.000001 )     2.04216575
  WF centre and spread    4  ( -0.000000,  0.000000, -0.000001 )     2.04216575
  WF centre and spread    5  ( -0.000001,  0.000000,  0.000000 )     2.04253460
  WF centre and spread    6  (  0.000002, -0.000000, -0.000000 )     2.04253460
  WF centre and spread    7  ( -0.000000, -0.000001, -0.000000 )     2.04253460
  WF centre and spread    8  (  0.000000, -0.000001,  0.000000 )     2.04253460
  WF centre and spread    9  (  0.000000,  0.000000, -0.000000 )     0.76412488
  WF centre and spread   10  ( -0.000000,  0.000000,  0.000000 )     0.76412488
  WF centre and spread   11  (  0.000000,  0.000000, -0.000000 )     0.74539245
  WF centre and spread   12  (  0.000000,  0.000000,  0.000000 )     0.74539245
  WF centre and spread   13  (  0.000000,  0.000000,  0.000000 )     0.74539245
  WF centre and spread   14  ( -0.000000, -0.000000, -0.000000 )     0.74539245
  WF centre and spread   15  (  0.000000,  0.000000,  0.000000 )     0.76413629
  WF centre and spread   16  ( -0.000000,  0.000000, -0.000000 )     0.76413629
  WF centre and spread   17  (  0.000000, -0.000000, -0.000000 )     0.74540236
  WF centre and spread   18  ( -0.000000,  0.000000,  0.000000 )     0.74540236
  Sum of centres and spreads (  0.000000, -0.000000,  0.000000 )    22.72989389
 
     25    -0.434E-07     0.0001973468       22.7298938890       0.18  <-- CONV
        O_D=      0.0011285 O_OD=     10.4712172 O_TOT=     22.7298939 <-- SPRD
 Delta: O_D=  0.1025216E-06 O_OD= -0.1459195E-06 O_TOT= -0.4339788E-07 <-- DLTA
 ------------------------------------------------------------------------------
 Cycle:     26
  WF centre and spread    1  (  0.000001,  0.000000, -0.000001 )     1.47326529
  WF centre and spread    2  ( -0.000001,  0.000001,  0.000000 )     1.47326529
  WF centre and spread    3  ( -0.000000, -0.000000,  0.000002 )     2.04216573
  WF centre and spread    4  ( -0.000000,  0.000000, -0.000001 )     2.04216573
  WF centre and spread    5  ( -0.000001,  0.000000,  0.000000 )     2.04253650
  WF centre and spread    6  (  0.000002, -0.000000, -0.000000 )     2.04253650
  WF centre and spread    7  ( -0.000000, -0.000001, -0.000000 )     2.04253650
  WF centre and spread    8  (  0.000000, -0.000001,  0.000000 )     2.04253650
  WF centre and spread    9  (  0.000000,  0.000000, -0.000000 )     0.76412478
  WF centre and spread   10  ( -0.000000,  0.000000,  0.000000 )     0.76412478
  WF centre and spread   11  (  0.000000,  0.000000, -0.000000 )     0.74539068
  WF centre and spread   12  (  0.000000,  0.000000, -0.000000 )     0.74539068
  WF centre and spread   13  (  0.000000,  0.000000,  0.000000 )     0.74539068
  WF centre and spread   14  ( -0.000000, -0.000000, -0.000000 )     0.74539068
  WF centre and spread   15  (  0.000000,  0.000000,  0.000000 )     0.76413617
  WF centre and spread   16  ( -0.000000,  0.000000, -0.000000 )     0.76413617
  WF centre and spread   17  (  0.000000, -0.000000, -0.000000 )     0.74540060
  WF centre and spread   18  (  0.000000,  0.000000,  0.000000 )     0.74540060
  Sum of centres and spreads (  0.000000, -0.000000,  0.000000 )    22.72989388
 
     26    -0.135E-07     0.0000907981       22.7298938756       0.18  <-- CONV
        O_D=      0.0011286 O_OD=     10.4712171 O_TOT=     22.7298939 <-- SPRD
 Delta: O_D=  0.6811836E-07 O_OD= -0.8159266E-07 O_TOT= -0.1347430E-07 <-- DLTA
 ------------------------------------------------------------------------------
 Cycle:     27
  WF centre and spread    1  (  0.000001,  0.000001, -0.000001 )     1.47326846
  WF centre and spread    2  ( -0.000002,  0.000001,  0.000001 )     1.47326846
  WF centre and spread    3  ( -0.000000, -0.000000,  0.000002 )     2.04216471
  WF centre and spread    4  ( -0.000000,  0.000000, -0.000001 )     2.04216471
  WF centre and spread    5  ( -0.000002,  0.000000,  0.000000 )     2.04253889
  WF centre and spread    6  (  0.000003, -0.000000, -0.000000 )     2.04253889
  WF centre and spread    7  ( -0.000000, -0.000001, -0.000000 )     2.04253889
  WF centre and spread    8  (  0.000000, -0.000001,  0.000000 )     2.04253889
  WF centre and spread    9  (  0.000000,  0.000000, -0.000000 )     0.76412450
  WF centre and spread   10  ( -0.000000,  0.000000,  0.000000 )     0.76412450
  WF centre and spread   11  (  0.000000,  0.000000, -0.000000 )     0.74538855
  WF centre and spread   12  (  0.000000,  0.000000, -0.000000 )     0.74538855
  WF centre and spread   13  (  0.000000,  0.000000,  0.000000 )     0.74538855
  WF centre and spread   14  ( -0.000000, -0.000000, -0.000000 )     0.74538855
  WF centre and spread   15  (  0.000000,  0.000000,  0.000000 )     0.76413590
  WF centre and spread   16  ( -0.000000,  0.000000, -0.000000 )     0.76413590
  WF centre and spread   17  ( -0.000000, -0.000000, -0.000000 )     0.74539850
  WF centre and spread   18  (  0.000000,  0.000000,  0.000000 )     0.74539850
  Sum of centres and spreads (  0.000000, -0.000000,  0.000000 )    22.72989387
 
     27    -0.908E-08     0.0000640752       22.7298938665       0.19  <-- CONV
        O_D=      0.0011286 O_OD=     10.4712171 O_TOT=     22.7298939 <-- SPRD
 Delta: O_D=  0.3514349E-07 O_OD= -0.4422651E-07 O_TOT= -0.9083013E-08 <-- DLTA
 ------------------------------------------------------------------------------
 Cycle:     28
  WF centre and spread    1  (  0.000002,  0.000001, -0.000002 )     1.47327152
  WF centre and spread    2  ( -0.000003,  0.000001,  0.000001 )     1.47327152
  WF centre and spread    3  ( -0.000000, -0.000000,  0.000003 )     2.04216248
  WF centre and spread    4  ( -0.000000,  0.000000, -0.000001 )     2.04216248
  WF centre and spread    5  ( -0.000002,  0.000000,  0.000000 )     2.04254139
  WF centre and spread    6  (  0.000004, -0.000000, -0.000000 )     2.04254139
  WF centre and spread    7  ( -0.000000, -0.000001,  0.000000 )     2.04254139
  WF centre and spread    8  (  0.000000, -0.000001,  0.000000 )     2.04254139
  WF centre and spread    9  (  0.000000,  0.000000, -0.000001 )     0.76412422
  WF centre and spread   10  ( -0.000000,  0.000000,  0.000000 )     0.76412422
  WF centre and spread   11  (  0.000000,  0.000000, -0.000000 )     0.74538675
  WF centre and spread   12  (  0.000000,  0.000000, -0.000000 )     0.74538675
  WF centre and spread   13  (  0.000000, -0.000000,  0.000000 )     0.74538675
  WF centre and spread   14  ( -0.000000, -0.000000, -0.000000 )     0.74538675
  WF centre and spread   15  (  0.000000,  0.000000,  0.000000 )     0.76413567
  WF centre and spread   16  ( -0.000001,  0.000000, -0.000000 )     0.76413567
  WF centre and spread   17  ( -0.000000, -0.000000, -0.000000 )     0.74539678
  WF centre and spread   18  (  0.000000,  0.000000,  0.000000 )     0.74539678
  Sum of centres and spreads (  0.000000, -0.000000,  0.000000 )    22.72989386
 
     28    -0.734E-08     0.0000580652       22.7298938592       0.19  <-- CONV
        O_D=      0.0011286 O_OD=     10.4712171 O_TOT=     22.7298939 <-- SPRD
 Delta: O_D= -0.1813721E-07 O_OD=  0.1080018E-07 O_TOT= -0.7337032E-08 <-- DLTA
 ------------------------------------------------------------------------------
 Cycle:     29
  WF centre and spread    1  (  0.000003,  0.000002, -0.000004 )     1.47327369
  WF centre and spread    2  ( -0.000005,  0.000002,  0.000002 )     1.47327369
  WF centre and spread    3  ( -0.000000, -0.000000,  0.000005 )     2.04215722
  WF centre and spread    4  (  0.000000,  0.000000, -0.000002 )     2.04215722
  WF centre and spread    5  ( -0.000004,  0.000000,  0.000000 )     2.04254445
  WF centre and spread    6  (  0.000007, -0.000000, -0.000000 )     2.04254445
  WF centre and spread    7  ( -0.000000, -0.000002,  0.000000 )     2.04254445
  WF centre and spread    8  (  0.000000, -0.000003, -0.000000 )     2.04254445
  WF centre and spread    9  (  0.000000,  0.000000, -0.000001 )     0.76412422
  WF centre and spread   10  ( -0.000000,  0.000000,  0.000000 )     0.76412422
  WF centre and spread   11  ( -0.000000,  0.000000,  0.000000 )     0.74538565
  WF centre and spread   12  (  0.000000,  0.000000, -0.000000 )     0.74538565
  WF centre and spread   13  (  0.000000, -0.000000,  0.000000 )     0.74538565
  WF centre and spread   14  ( -0.000000, -0.000000, -0.000000 )     0.74538565
  WF centre and spread   15  (  0.000001,  0.000000,  0.000000 )     0.76413579
  WF centre and spread   16  ( -0.000001,  0.000000, -0.000000 )     0.76413579
  WF centre and spread   17  ( -0.000000, -0.000000, -0.000000 )     0.74539582
  WF centre and spread   18  (  0.000000,  0.000000,  0.000000 )     0.74539582
  Sum of centres and spreads (  0.000000, -0.000000,  0.000000 )    22.72989385
 
     29    -0.901E-08     0.0000539815       22.7298938501       0.19  <-- CONV
        O_D=      0.0011285 O_OD=     10.4712172 O_TOT=     22.7298939 <-- SPRD
 Delta: O_D= -0.1248458E-06 O_OD=  0.1158379E-06 O_TOT= -0.9007962E-08 <-- DLTA
 ------------------------------------------------------------------------------
 Cycle:     30
  WF centre and spread    1  (  0.000024,  0.000012, -0.000031 )     1.47328464
  WF centre and spread    2  ( -0.000041,  0.000015,  0.000013 )     1.47328464
  WF centre and spread    3  ( -0.000000, -0.000000,  0.000043 )     2.04207510
  WF centre and spread    4  (  0.000000, -0.000000, -0.000019 )     2.04207510
  WF centre and spread    5  ( -0.000033,  0.000000,  0.000000 )     2.04258055
  WF centre and spread    6  (  0.000058, -0.000000, -0.000000 )     2.04258055
  WF centre and spread    7  ( -0.000000, -0.000017,  0.000000 )     2.04258055
  WF centre and spread    8  (  0.000000, -0.000021, -0.000000 )     2.04258056
  WF centre and spread    9  (  0.000001,  0.000001, -0.000008 )     0.76412782
[...]
  WF centre and spread    3  (  0.000219, -0.000191,  0.793340 )     1.05359775
  WF centre and spread    4  ( -0.000013,  0.000095, -0.793331 )     1.05377148
  WF centre and spread    5  ( -0.793339,  0.000319, -0.000161 )     1.05363116
  WF centre and spread    6  (  0.793351, -0.000092,  0.000057 )     1.05341493
  WF centre and spread    7  (  0.000251, -0.793328,  0.000256 )     1.05379569
  WF centre and spread    8  (  0.000093, -0.793335,  0.000045 )     1.05374139
  WF centre and spread    9  ( -0.000281,  0.000195, -0.793323 )     1.05385814
  WF centre and spread   10  (  0.000106,  0.000006,  0.793332 )     1.05370706
  WF centre and spread   11  ( -0.000008,  0.000002,  0.000009 )     0.74393224
  WF centre and spread   12  (  0.000019,  0.000001, -0.000000 )     0.74422406
  WF centre and spread   13  ( -0.000002,  0.000001,  0.000005 )     0.74402306
  WF centre and spread   14  ( -0.000003,  0.000010,  0.000006 )     0.74429508
  WF centre and spread   15  ( -0.000240,  0.793336, -0.000252 )     1.05364578
  WF centre and spread   16  ( -0.000020,  0.793333,  0.000002 )     1.05372860
  WF centre and spread   17  ( -0.000000,  0.000004, -0.000002 )     0.74392124
  WF centre and spread   18  (  0.000016, -0.000010, -0.000003 )     0.74422644
  Sum of centres and spreads (  0.000160,  0.000052,  0.000115 )    17.10938354
 
    992    -0.829E-05     0.0024841396       17.1093835374       1.72  <-- CONV
        O_D=      0.0360874 O_OD=      4.8157479 O_TOT=     17.1093835 <-- SPRD
 Delta: O_D=  0.2582668E-05 O_OD= -0.1087719E-04 O_TOT= -0.8294518E-05 <-- DLTA
 ------------------------------------------------------------------------------
 Cycle:    993
  WF centre and spread    1  (  0.793321, -0.000295,  0.000208 )     1.05375825
  WF centre and spread    2  ( -0.793317,  0.000018, -0.000079 )     1.05388855
  WF centre and spread    3  (  0.000235, -0.000193,  0.793326 )     1.05365834
  WF centre and spread    4  ( -0.000035,  0.000072, -0.793326 )     1.05375101
  WF centre and spread    5  ( -0.793325,  0.000312, -0.000177 )     1.05367003
  WF centre and spread    6  (  0.793342, -0.000068,  0.000065 )     1.05357375
  WF centre and spread    7  (  0.000250, -0.793321,  0.000257 )     1.05375403
  WF centre and spread    8  (  0.000076, -0.793328,  0.000035 )     1.05373374
  WF centre and spread    9  ( -0.000265,  0.000195, -0.793317 )     1.05378287
  WF centre and spread   10  (  0.000082, -0.000017,  0.793332 )     1.05371997
  WF centre and spread   11  ( -0.000003,  0.000001,  0.000005 )     0.74394472
  WF centre and spread   12  (  0.000009,  0.000001, -0.000000 )     0.74423040
  WF centre and spread   13  ( -0.000001,  0.000001,  0.000002 )     0.74403449
  WF centre and spread   14  ( -0.000001,  0.000006,  0.000003 )     0.74430227
  WF centre and spread   15  ( -0.000243,  0.793327, -0.000254 )     1.05367799
  WF centre and spread   16  ( -0.000040,  0.793333, -0.000009 )     1.05372849
  WF centre and spread   17  (  0.000000,  0.000002, -0.000001 )     0.74393338
  WF centre and spread   18  (  0.000008, -0.000005, -0.000002 )     0.74423288
  Sum of centres and spreads (  0.000094,  0.000040,  0.000068 )    17.10937515
 
    993    -0.839E-05     0.0016985233       17.1093751484       1.72  <-- CONV
        O_D=      0.0360944 O_OD=      4.8157325 O_TOT=     17.1093751 <-- SPRD
 Delta: O_D=  0.6989500E-05 O_OD= -0.1537851E-04 O_TOT= -0.8389015E-05 <-- DLTA
 ------------------------------------------------------------------------------
 Cycle:    994
  WF centre and spread    1  (  0.793321, -0.000305,  0.000191 )     1.05370466
  WF centre and spread    2  ( -0.793325,  0.000045, -0.000071 )     1.05370764
  WF centre and spread    3  (  0.000253, -0.000195,  0.793315 )     1.05373027
  WF centre and spread    4  ( -0.000060,  0.000046, -0.793323 )     1.05373265
  WF centre and spread    5  ( -0.793315,  0.000305, -0.000194 )     1.05371661
  WF centre and spread    6  (  0.793329, -0.000043,  0.000073 )     1.05375143
  WF centre and spread    7  (  0.000249, -0.793317,  0.000256 )     1.05371142
  WF centre and spread    8  (  0.000056, -0.793324,  0.000022 )     1.05373051
  WF centre and spread    9  ( -0.000248,  0.000195, -0.793317 )     1.05370782
  WF centre and spread   10  (  0.000056, -0.000044,  0.793329 )     1.05373826
  WF centre and spread   11  (  0.000001,  0.000000,  0.000000 )     0.74394743
  WF centre and spread   12  ( -0.000001,  0.000000,  0.000000 )     0.74423011
  WF centre and spread   13  ( -0.000000, -0.000000, -0.000000 )     0.74403639
  WF centre and spread   14  (  0.000001,  0.000000,  0.000000 )     0.74430219
  WF centre and spread   15  ( -0.000246,  0.793319, -0.000257 )     1.05371889
  WF centre and spread   16  ( -0.000062,  0.793331, -0.000022 )     1.05373301
  WF centre and spread   17  (  0.000001, -0.000000, -0.000000 )     0.74393604
  WF centre and spread   18  ( -0.000001,  0.000000, -0.000000 )     0.74423255
  Sum of centres and spreads (  0.000007,  0.000014,  0.000002 )    17.10936790
 
    994    -0.725E-05     0.0018004743       17.1093678967       1.72  <-- CONV
        O_D=      0.0360961 O_OD=      4.8157236 O_TOT=     17.1093679 <-- SPRD
 Delta: O_D=  0.1645985E-05 O_OD= -0.8897617E-05 O_TOT= -0.7251632E-05 <-- DLTA
 ------------------------------------------------------------------------------
 Cycle:    995
  WF centre and spread    1  (  0.793326, -0.000314,  0.000176 )     1.05366134
  WF centre and spread    2  ( -0.793338,  0.000068, -0.000065 )     1.05354594
  WF centre and spread    3  (  0.000268, -0.000197,  0.793314 )     1.05379830
  WF centre and spread    4  ( -0.000085,  0.000020, -0.793326 )     1.05371871
  WF centre and spread    5  ( -0.793316,  0.000298, -0.000211 )     1.05376441
  WF centre and spread    6  (  0.793317, -0.000019,  0.000081 )     1.05391475
  WF centre and spread    7  (  0.000247, -0.793322,  0.000256 )     1.05367535
  WF centre and spread    8  (  0.000037, -0.793325,  0.000010 )     1.05373101
  WF centre and spread    9  ( -0.000235,  0.000194, -0.793324 )     1.05364719
  WF centre and spread   10  (  0.000033, -0.000070,  0.793326 )     1.05375694
  WF centre and spread   11  (  0.000004, -0.000001, -0.000005 )     0.74393920
  WF centre and spread   12  ( -0.000011, -0.000000,  0.000000 )     0.74422542
  WF centre and spread   13  (  0.000001, -0.000001, -0.000003 )     0.74402871
  WF centre and spread   14  (  0.000001, -0.000005, -0.000003 )     0.74429755
  WF centre and spread   15  ( -0.000250,  0.793319, -0.000260 )     1.05376085
  WF centre and spread   16  ( -0.000081,  0.793329, -0.000034 )     1.05373949
  WF centre and spread   17  (  0.000001, -0.000003,  0.000001 )     0.74392799
  WF centre and spread   18  ( -0.000009,  0.000005,  0.000001 )     0.74422789
  Sum of centres and spreads ( -0.000087, -0.000025, -0.000067 )    17.10936104
 
    995    -0.685E-05     0.0017519022       17.1093610441       1.72  <-- CONV
        O_D=      0.0360917 O_OD=      4.8157212 O_TOT=     17.1093610 <-- SPRD
 Delta: O_D= -0.4373341E-05 O_OD= -0.2479265E-05 O_TOT= -0.6852606E-05 <-- DLTA
 ------------------------------------------------------------------------------
 Cycle:    996
  WF centre and spread    1  (  0.793336, -0.000323,  0.000168 )     1.05363377
  WF centre and spread    2  ( -0.793354,  0.000084, -0.000062 )     1.05343165
  WF centre and spread    3  (  0.000280, -0.000200,  0.793323 )     1.05384770
  WF centre and spread    4  ( -0.000104,  0.000001, -0.793334 )     1.05371029
  WF centre and spread    5  ( -0.793327,  0.000293, -0.000223 )     1.05380348
  WF centre and spread    6  (  0.793313, -0.000000,  0.000087 )     1.05403143
  WF centre and spread    7  (  0.000246, -0.793335,  0.000256 )     1.05365094
  WF centre and spread    8  (  0.000023, -0.793333,  0.000001 )     1.05373282
  WF centre and spread    9  ( -0.000229,  0.000193, -0.793338 )     1.05360880
  WF centre and spread   10  (  0.000018, -0.000090,  0.793328 )     1.05376938
  WF centre and spread   11  (  0.000007, -0.000002, -0.000009 )     0.74392558
  WF centre and spread   12  ( -0.000018, -0.000001, -0.000000 )     0.74422142
  WF centre and spread   13  (  0.000002, -0.000002, -0.000005 )     0.74401721
  WF centre and spread   14  (  0.000002, -0.000009, -0.000005 )     0.74429391
  WF centre and spread   15  ( -0.000255,  0.793325, -0.000262 )     1.05379373
  WF centre and spread   16  ( -0.000092,  0.793329, -0.000044 )     1.05374346
  WF centre and spread   17  (  0.000000, -0.000004,  0.000001 )     0.74391438
  WF centre and spread   18  ( -0.000015,  0.000009,  0.000003 )     0.74422394
  Sum of centres and spreads ( -0.000166, -0.000064, -0.000116 )    17.10935388
 
    996    -0.716E-05     0.0016641764       17.1093538836       1.73  <-- CONV
        O_D=      0.0360877 O_OD=      4.8157180 O_TOT=     17.1093539 <-- SPRD
 Delta: O_D= -0.3978322E-05 O_OD= -0.3182148E-05 O_TOT= -0.7160470E-05 <-- DLTA
 ------------------------------------------------------------------------------
 Cycle:    997
  WF centre and spread    1  (  0.793343, -0.000329,  0.000168 )     1.05362610
  WF centre and spread    2  ( -0.793364,  0.000092, -0.000061 )     1.05339377
  WF centre and spread    3  (  0.000286, -0.000202,  0.793331 )     1.05386485
  WF centre and spread    4  ( -0.000111, -0.000007, -0.793340 )     1.05370843
  WF centre and spread    5  ( -0.793336,  0.000293, -0.000229 )     1.05381906
  WF centre and spread    6  (  0.793313,  0.000009,  0.000091 )     1.05407038
  WF centre and spread    7  (  0.000246, -0.793345,  0.000258 )     1.05364320
  WF centre and spread    8  (  0.000019, -0.793339, -0.000002 )     1.05373424
  WF centre and spread    9  ( -0.000229,  0.000195, -0.793346 )     1.05359786
  WF centre and spread   10  (  0.000013, -0.000099,  0.793329 )     1.05377280
  WF centre and spread   11  (  0.000008, -0.000003, -0.000011 )     0.74391581
  WF centre and spread   12  ( -0.000020, -0.000001, -0.000000 )     0.74421998
  WF centre and spread   13  (  0.000002, -0.000002, -0.000005 )     0.74400928
  WF centre and spread   14  (  0.000002, -0.000011, -0.000006 )     0.74429315
  WF centre and spread   15  ( -0.000259,  0.793331, -0.000264 )     1.05380590
  WF centre and spread   16  ( -0.000096,  0.793331, -0.000048 )     1.05374409
  WF centre and spread   17  (  0.000000, -0.000004,  0.000002 )     0.74390440
  WF centre and spread   18  ( -0.000017,  0.000011,  0.000003 )     0.74422248
  Sum of centres and spreads ( -0.000198, -0.000082, -0.000131 )    17.10934578
 
    997    -0.810E-05     0.0017065928       17.1093457816       1.73  <-- CONV
        O_D=      0.0360876 O_OD=      4.8157100 O_TOT=     17.1093458 <-- SPRD
 Delta: O_D= -0.1561952E-06 O_OD= -0.7945879E-05 O_TOT= -0.8102074E-05 <-- DLTA
 ------------------------------------------------------------------------------
 Cycle:    998
  WF centre and spread    1  (  0.793336, -0.000326,  0.000171 )     1.05363878
  WF centre and spread    2  ( -0.793354,  0.000086, -0.000063 )     1.05344904
  WF centre and spread    3  (  0.000282, -0.000201,  0.793323 )     1.05384053
  WF centre and spread    4  ( -0.000102,  0.000000, -0.793334 )     1.05371207
  WF centre and spread    5  ( -0.793328,  0.000296, -0.000224 )     1.05379882
  WF centre and spread    6  (  0.793314,  0.000000,  0.000089 )     1.05401404
  WF centre and spread    7  (  0.000248, -0.793335,  0.000260 )     1.05365463
  WF centre and spread    8  (  0.000026, -0.793333,  0.000001 )     1.05373325
  WF centre and spread    9  ( -0.000231,  0.000196, -0.793338 )     1.05361575
  WF centre and spread   10  (  0.000020, -0.000091,  0.793328 )     1.05376757
  WF centre and spread   11  (  0.000007, -0.000002, -0.000009 )     0.74392136
  WF centre and spread   12  ( -0.000017, -0.000001, -0.000000 )     0.74422004
  WF centre and spread   13  (  0.000002, -0.000001, -0.000005 )     0.74401350
  WF centre and spread   14  (  0.000002, -0.000009, -0.000005 )     0.74429319
  WF centre and spread   15  ( -0.000258,  0.793326, -0.000264 )     1.05378945
  WF centre and spread   16  ( -0.000091,  0.793329, -0.000044 )     1.05374296
  WF centre and spread   17  ( -0.000000, -0.000004,  0.000002 )     0.74391009
  WF centre and spread   18  ( -0.000014,  0.000009,  0.000003 )     0.74422258
  Sum of centres and spreads ( -0.000158, -0.000061, -0.000110 )    17.10933767
 
    998    -0.812E-05     0.0023134731       17.1093376653       1.73  <-- CONV
        O_D=      0.0360874 O_OD=      4.8157021 O_TOT=     17.1093377 <-- SPRD
 Delta: O_D= -0.1458546E-06 O_OD= -0.7970397E-05 O_TOT= -0.8116252E-05 <-- DLTA
 ------------------------------------------------------------------------------
 Cycle:    999
  WF centre and spread    1  (  0.793326, -0.000320,  0.000181 )     1.05366922
  WF centre and spread    2  ( -0.793337,  0.000071, -0.000066 )     1.05357436
  WF centre and spread    3  (  0.000273, -0.000200,  0.793315 )     1.05378653
  WF centre and spread    4  ( -0.000083,  0.000019, -0.793326 )     1.05372155
  WF centre and spread    5  ( -0.793317,  0.000304, -0.000213 )     1.05375644
  WF centre and spread    6  (  0.793319, -0.000018,  0.000083 )     1.05388625
  WF centre and spread    7  (  0.000251, -0.793322,  0.000263 )     1.05368147
  WF centre and spread    8  (  0.000042, -0.793325,  0.000010 )     1.05373164
  WF centre and spread    9  ( -0.000240,  0.000199, -0.793324 )     1.05365839
  WF centre and spread   10  (  0.000038, -0.000073,  0.793327 )     1.05375392
  WF centre and spread   11  (  0.000004, -0.000001, -0.000005 )     0.74393157
  WF centre and spread   12  ( -0.000009, -0.000000,  0.000000 )     0.74422292
  WF centre and spread   13  (  0.000001, -0.000000, -0.000002 )     0.74402198
  WF centre and spread   14  (  0.000002, -0.000005, -0.000003 )     0.74429629
  WF centre and spread   15  ( -0.000256,  0.793320, -0.000264 )     1.05375371
  WF centre and spread   16  ( -0.000078,  0.793329, -0.000036 )     1.05373866
  WF centre and spread   17  (  0.000000, -0.000002,  0.000001 )     0.74392013
  WF centre and spread   18  ( -0.000008,  0.000005,  0.000001 )     0.74422541
  Sum of centres and spreads ( -0.000073, -0.000020, -0.000058 )    17.10933043
 
    999    -0.724E-05     0.0017121063       17.1093304284       1.73  <-- CONV
        O_D=      0.0360916 O_OD=      4.8156907 O_TOT=     17.1093304 <-- SPRD
 Delta: O_D=  0.4153712E-05 O_OD= -0.1139065E-04 O_TOT= -0.7236937E-05 <-- DLTA
 ------------------------------------------------------------------------------
 Cycle:   1000
  WF centre and spread    1  (  0.793320, -0.000313,  0.000197 )     1.05371307
  WF centre and spread    2  ( -0.793323,  0.000049, -0.000072 )     1.05373974
  WF centre and spread    3  (  0.000259, -0.000200,  0.793315 )     1.05371666
  WF centre and spread    4  ( -0.000058,  0.000045, -0.793323 )     1.05373565
  WF centre and spread    5  ( -0.793315,  0.000314, -0.000198 )     1.05370706
  WF centre and spread    6  (  0.793331, -0.000042,  0.000077 )     1.05371914
  WF centre and spread    7  (  0.000254, -0.793316,  0.000266 )     1.05371840
  WF centre and spread    8  (  0.000062, -0.793324,  0.000023 )     1.05373094
  WF centre and spread    9  ( -0.000255,  0.000202, -0.793316 )     1.05372029
  WF centre and spread   10  (  0.000062, -0.000047,  0.793329 )     1.05373478
  WF centre and spread   11  (  0.000001, -0.000000,  0.000001 )     0.74393684
  WF centre and spread   12  (  0.000000,  0.000000,  0.000000 )     0.74422666
  WF centre and spread   13  ( -0.000000,  0.000000,  0.000000 )     0.74402698
  WF centre and spread   14  (  0.000001,  0.000000,  0.000000 )     0.74430054
  WF centre and spread   15  ( -0.000255,  0.793320, -0.000263 )     1.05371058
  WF centre and spread   16  ( -0.000059,  0.793331, -0.000023 )     1.05373201
  WF centre and spread   17  (  0.000000,  0.000000,  0.000000 )     0.74392496
  WF centre and spread   18  (  0.000000,  0.000000,  0.000000 )     0.74422914
  Sum of centres and spreads (  0.000024,  0.000020,  0.000014 )    17.10932345
 
   1000    -0.698E-05     0.0016761389       17.1093234453       1.73  <-- CONV
        O_D=      0.0360964 O_OD=      4.8156788 O_TOT=     17.1093234 <-- SPRD
 Delta: O_D=  0.4863305E-05 O_OD= -0.1184639E-04 O_TOT= -0.6983089E-05 <-- DLTA
 ------------------------------------------------------------------------------

 Writing checkpoint file Pt.chk... done

 Final State
  WF centre and spread    1  (  0.793320, -0.000313,  0.000197 )     1.05371307
  WF centre and spread    2  ( -0.793323,  0.000049, -0.000072 )     1.05373974
  WF centre and spread    3  (  0.000259, -0.000200,  0.793315 )     1.05371666
  WF centre and spread    4  ( -0.000058,  0.000045, -0.793323 )     1.05373565
  WF centre and spread    5  ( -0.793315,  0.000314, -0.000198 )     1.05370706
  WF centre and spread    6  (  0.793331, -0.000042,  0.000077 )     1.05371914
  WF centre and spread    7  (  0.000254, -0.793316,  0.000266 )     1.05371840
  WF centre and spread    8  (  0.000062, -0.793324,  0.000023 )     1.05373094
  WF centre and spread    9  ( -0.000255,  0.000202, -0.793316 )     1.05372029
  WF centre and spread   10  (  0.000062, -0.000047,  0.793329 )     1.05373478
  WF centre and spread   11  (  0.000001, -0.000000,  0.000001 )     0.74393684
  WF centre and spread   12  (  0.000000,  0.000000,  0.000000 )     0.74422666
  WF centre and spread   13  ( -0.000000,  0.000000,  0.000000 )     0.74402698
  WF centre and spread   14  (  0.000001,  0.000000,  0.000000 )     0.74430054
  WF centre and spread   15  ( -0.000255,  0.793320, -0.000263 )     1.05371058
  WF centre and spread   16  ( -0.000059,  0.793331, -0.000023 )     1.05373201
  WF centre and spread   17  (  0.000000,  0.000000,  0.000000 )     0.74392496
  WF centre and spread   18  (  0.000000,  0.000000,  0.000000 )     0.74422914
  Sum of centres and spreads (  0.000024,  0.000020,  0.000014 )    17.10932345
 
         Spreads (Ang^2)       Omega I      =    12.257548184
        ================       Omega D      =     0.036096436
                               Omega OD     =     4.815678826
    Final Spread (Ang^2)       Omega Total  =    17.109323445
 ------------------------------------------------------------------------------
 Time for wannierise            1.587 (sec)

 Writing checkpoint file Pt.chk... done

 *---------------------------------------------------------------------------*
 |                               PLOTTING                                    |
 *---------------------------------------------------------------------------*
 
 
 Calculating interpolated band-structure
 
 Time to calculate interpolated band structure       1.235 (sec)
 
 Time for plotting              1.251 (sec)
 Total Execution Time           3.471 (sec)

 *===========================================================================*
 |                             TIMING INFORMATION                            |
 *===========================================================================*
 |    Tag                                                Ncalls      Time (s)|
 |---------------------------------------------------------------------------|
 |kmesh: get                                        :         1         0.048|
 |overlap: allocate                                 :         1         0.000|
 |overlap: read                                     :         1         0.360|
 |dis: main                                         :         1         0.138|
 |wann: main                                        :         1         1.587|
 |plot: main                                        :         1         1.250|
 *---------------------------------------------------------------------------*
 
 All done: wannier90 exiting
