
     Program PW2WANNIER v.7.0 starts on 13May2022 at 15:23:22 

     This program is part of the open-source Quantum ESPRESSO suite
     for quantum simulation of materials; please cite
         "P. Giannozzi et al., J. Phys.:Condens. Matter 21 395502 (2009);
         "P. Giannozzi et al., J. Phys.:Condens. Matter 29 465901 (2017);
         "P. Giannozzi et al., J. Chem. Phys. 152 154105 (2020);
          URL http://www.quantum-espresso.org", 
     in publications or presentations arising from this work. More details at
     http://www.quantum-espresso.org/quote

     Parallel version (MPI & OpenMP), running on      60 processor cores
     Number of MPI processes:                60
     Threads/MPI process:                     1

     MPI processes distributed on     3 nodes
     K-points division:     npool     =      15
     R & G space division:  proc/nbgrp/npool/nimage =       4
     17739 MiB available memory on the printing compute node when the environment starts
 
 
  Reading nscf_save data

     Reading xml data from directory:

     ./temp/Pt.save/

     IMPORTANT: XC functional enforced from input :
     Exchange-correlation= PBESOL
                           (   1   4  10   8   0   0   0)
     Any further DFT definition will be discarded
     Please, verify this is what you really want

 
     Parallelization info
     --------------------
     sticks:   dense  smooth     PW     G-vecs:    dense   smooth      PW
     Min         112     112     37                 1593     1593     309
     Max         113     113     38                 1594     1594     312
     Sum         451     451    151                 6375     6375    1243
 
     Using Slab Decomposition
 
     Reading collected, re-writing distributed wavefunctions
 
  Spin CASE ( non-collinear )
 
  Wannier mode is: standalone     
 
  -----------------
  *** Reading nnkp 
  -----------------
 
  Checking info from wannier.nnkp file
 
  - Real lattice is ok
  - Reciprocal lattice is ok
  - K-points are ok
  - Number of wannier functions is ok ( 18)
  - All guiding functions are given 
 
 Projections:
    0.000000    0.000000    0.000000  0  1  1    1.000000
    0.000000    0.000000    0.000000  0  1  1    1.000000
    0.000000    0.000000    0.000000  1  1  1    1.000000
    0.000000    0.000000    0.000000  1  1  1    1.000000
    0.000000    0.000000    0.000000  1  2  1    1.000000
    0.000000    0.000000    0.000000  1  2  1    1.000000
    0.000000    0.000000    0.000000  1  3  1    1.000000
    0.000000    0.000000    0.000000  1  3  1    1.000000
    0.000000    0.000000    0.000000  2  1  1    1.000000
    0.000000    0.000000    0.000000  2  1  1    1.000000
    0.000000    0.000000    0.000000  2  2  1    1.000000
    0.000000    0.000000    0.000000  2  2  1    1.000000
    0.000000    0.000000    0.000000  2  3  1    1.000000
    0.000000    0.000000    0.000000  2  3  1    1.000000
    0.000000    0.000000    0.000000  2  4  1    1.000000
    0.000000    0.000000    0.000000  2  4  1    1.000000
    0.000000    0.000000    0.000000  2  5  1    1.000000
    0.000000    0.000000    0.000000  2  5  1    1.000000
 
  Reading data about k-point neighbours 
 
  All neighbours are found 
 
  Opening pp-files 
 
 
  --------------------------
  *** Compute  A projections
  --------------------------
 
 Number of local k points =        5
       1       2       3       4       5
  AMN calculated
 
  ---------------
  *** Compute  M 
  ---------------
 
 Number of local k points =        5
       1       2       3       4       5
  MMN calculated
 
  ------------------
  *** Compute  Spin 
  ------------------
 
 Number of local k points =        5
       1       2       3       4       5
  SPIN calculated
 
  -----------------------------------
  *** Orbital terms are not computed 
  -----------------------------------
 
  ----------------
  *** Compute shc 
  ----------------
 
  *** Computing  sHu 
  *** Computing  sIu 
 
 Number of local k points =        5
       1       2       3       4       5
  shc calculated
 
  ----------------
  *** Write bands 
  ----------------
 
 
  -----------------------------
  *** Plot info is not printed 
  -----------------------------
 
  -----------------------------
  *** Parity info is not printed 
  -----------------------------
 
  ------------
  *** Stop pp 
  ------------
 
 
     init_pw2wan  :      0.25s CPU      0.30s WALL (       1 calls)
     compute_amn  :      0.34s CPU      0.38s WALL (       1 calls)
     compute_mmn  :      0.27s CPU      0.34s WALL (       1 calls)
     compute_spin :      0.00s CPU      0.03s WALL (       1 calls)
     compute_shc  :      0.33s CPU      0.48s WALL (       1 calls)

     Internal routines:
     compute_u_kb :      0.16s CPU      0.20s WALL (      80 calls)
     h_psi        :      0.16s CPU      0.18s WALL (      40 calls)
 
     PW2WANNIER   :      1.19s CPU      1.56s WALL

 
   This run was terminated on:  15:23:24  13May2022            

=------------------------------------------------------------------------------=
   JOB DONE.
=------------------------------------------------------------------------------=
 
