
     Program PWSCF v.7.0 starts on 13May2022 at 15: 4: 4 

     This program is part of the open-source Quantum ESPRESSO suite
     for quantum simulation of materials; please cite
         "P. Giannozzi et al., J. Phys.:Condens. Matter 21 395502 (2009);
         "P. Giannozzi et al., J. Phys.:Condens. Matter 29 465901 (2017);
         "P. Giannozzi et al., J. Chem. Phys. 152 154105 (2020);
          URL http://www.quantum-espresso.org", 
     in publications or presentations arising from this work. More details at
     http://www.quantum-espresso.org/quote

     Parallel version (MPI & OpenMP), running on      60 processor cores
     Number of MPI processes:                60
     Threads/MPI process:                     1

     MPI processes distributed on     3 nodes
     17941 MiB available memory on the printing compute node when the environment starts
 
     Reading input from scf.in

     Current dimensions of program PWSCF are:
     Max number of different atomic species (ntypx) = 10
     Max number of k-points (npk) =  40000
     Max angular momentum in pseudopotentials (lmaxx) =  4
 
     K-points division:     npool     =      15
     R & G space division:  proc/nbgrp/npool/nimage =       4
     Subspace diagonalization in iterative solution of the eigenvalue problem:
     a serial algorithm will be used

 
     Parallelization info
     --------------------
     sticks:   dense  smooth     PW     G-vecs:    dense   smooth      PW
     Min         112     112     37                 1593     1593     309
     Max         113     113     38                 1594     1594     312
     Sum         451     451    151                 6375     6375    1243
 
     Using Slab Decomposition
 


     bravais-lattice index     =            2
     lattice parameter (alat)  =       7.3926  a.u.
     unit-cell volume          =     101.0024 (a.u.)^3
     number of atoms/cell      =            1
     number of atomic types    =            1
     number of electrons       =        10.00
     number of Kohn-Sham states=           18
     kinetic-energy cutoff     =      60.0000  Ry
     charge density cutoff     =     240.0000  Ry
     scf convergence threshold =      1.0E-12
     mixing beta               =       0.7000
     number of iterations used =            8  plain     mixing
     Exchange-correlation= PBESOL
                           (   1   4  10   8   0   0   0)
     Non magnetic calculation with spin-orbit


     celldm(1)=   7.392600  celldm(2)=   0.000000  celldm(3)=   0.000000
     celldm(4)=   0.000000  celldm(5)=   0.000000  celldm(6)=   0.000000

     crystal axes: (cart. coord. in units of alat)
               a(1) = (  -0.500000   0.000000   0.500000 )  
               a(2) = (   0.000000   0.500000   0.500000 )  
               a(3) = (  -0.500000   0.500000   0.000000 )  

     reciprocal axes: (cart. coord. in units 2 pi/alat)
               b(1) = ( -1.000000 -1.000000  1.000000 )  
               b(2) = (  1.000000  1.000000  1.000000 )  
               b(3) = ( -1.000000  1.000000 -1.000000 )  


     PseudoPot. # 1 for Pt read from file:
     ./Pt.rel-pbesol-n-nc.UPF
     MD5 check sum: 1ad8c16a3f6cfbc15730206407dd53f7
     Pseudo is Norm-conserving + core correction, Zval = 10.0
     Generated using "atomic" code by A. Dal Corso  v.5.0.99 svn rev. 10869
     Using radial grid of 1277 points,  4 beta functions with: 
                l(1) =   1
                l(2) =   1
                l(3) =   2
                l(4) =   2

     atomic species   valence    mass     pseudopotential
        Pt            10.00     1.00000     Pt( 1.00)

     48 Sym. Ops., with inversion, found



   Cartesian axes

     site n.     atom                  positions (alat units)
         1           Pt  tau(   1) = (   0.0000000   0.0000000   0.0000000  )

     number of k points=    72  Gaussian smearing, width (Ry)=  0.0300
                       cart. coord. in units 2pi/alat
        k(    1) = (   0.0000000   0.0000000   0.0000000), wk =   0.0005787
        k(    2) = (  -0.0833333   0.0833333  -0.0833333), wk =   0.0046296
        k(    3) = (  -0.1666667   0.1666667  -0.1666667), wk =   0.0046296
        k(    4) = (  -0.2500000   0.2500000  -0.2500000), wk =   0.0046296
        k(    5) = (  -0.3333333   0.3333333  -0.3333333), wk =   0.0046296
        k(    6) = (  -0.4166667   0.4166667  -0.4166667), wk =   0.0046296
        k(    7) = (   0.5000000  -0.5000000   0.5000000), wk =   0.0023148
        k(    8) = (   0.0000000   0.1666667   0.0000000), wk =   0.0034722
        k(    9) = (  -0.0833333   0.2500000  -0.0833333), wk =   0.0138889
        k(   10) = (  -0.1666667   0.3333333  -0.1666667), wk =   0.0138889
        k(   11) = (  -0.2500000   0.4166667  -0.2500000), wk =   0.0138889
        k(   12) = (  -0.3333333   0.5000000  -0.3333333), wk =   0.0138889
        k(   13) = (   0.5833333  -0.4166667   0.5833333), wk =   0.0138889
        k(   14) = (   0.5000000  -0.3333333   0.5000000), wk =   0.0138889
        k(   15) = (   0.4166667  -0.2500000   0.4166667), wk =   0.0138889
        k(   16) = (   0.3333333  -0.1666667   0.3333333), wk =   0.0138889
        k(   17) = (   0.2500000  -0.0833333   0.2500000), wk =   0.0138889
        k(   18) = (   0.1666667  -0.0000000   0.1666667), wk =   0.0069444
        k(   19) = (   0.0000000   0.3333333   0.0000000), wk =   0.0034722
        k(   20) = (  -0.0833333   0.4166667  -0.0833333), wk =   0.0138889
        k(   21) = (  -0.1666667   0.5000000  -0.1666667), wk =   0.0138889
        k(   22) = (  -0.2500000   0.5833333  -0.2500000), wk =   0.0138889
        k(   23) = (   0.6666667  -0.3333333   0.6666667), wk =   0.0138889
        k(   24) = (   0.5833333  -0.2500000   0.5833333), wk =   0.0138889
        k(   25) = (   0.5000000  -0.1666667   0.5000000), wk =   0.0138889
        k(   26) = (   0.4166667  -0.0833333   0.4166667), wk =   0.0138889
        k(   27) = (   0.3333333   0.0000000   0.3333333), wk =   0.0069444
        k(   28) = (   0.0000000   0.5000000   0.0000000), wk =   0.0034722
        k(   29) = (  -0.0833333   0.5833333  -0.0833333), wk =   0.0138889
        k(   30) = (  -0.1666667   0.6666667  -0.1666667), wk =   0.0138889
        k(   31) = (   0.7500000  -0.2500000   0.7500000), wk =   0.0138889
        k(   32) = (   0.6666667  -0.1666667   0.6666667), wk =   0.0138889
        k(   33) = (   0.5833333  -0.0833333   0.5833333), wk =   0.0138889
        k(   34) = (   0.5000000   0.0000000   0.5000000), wk =   0.0069444
        k(   35) = (   0.0000000   0.6666667   0.0000000), wk =   0.0034722
        k(   36) = (  -0.0833333   0.7500000  -0.0833333), wk =   0.0138889
        k(   37) = (   0.8333333  -0.1666667   0.8333333), wk =   0.0138889
        k(   38) = (   0.7500000  -0.0833333   0.7500000), wk =   0.0138889
        k(   39) = (   0.6666667  -0.0000000   0.6666667), wk =   0.0069444
        k(   40) = (   0.0000000   0.8333333   0.0000000), wk =   0.0034722
        k(   41) = (   0.9166667  -0.0833333   0.9166667), wk =   0.0138889
        k(   42) = (   0.8333333   0.0000000   0.8333333), wk =   0.0069444
        k(   43) = (   0.0000000  -1.0000000   0.0000000), wk =   0.0017361
        k(   44) = (  -0.1666667   0.3333333   0.0000000), wk =   0.0138889
        k(   45) = (  -0.2500000   0.4166667  -0.0833333), wk =   0.0277778
        k(   46) = (  -0.3333333   0.5000000  -0.1666667), wk =   0.0277778
        k(   47) = (   0.5833333  -0.4166667   0.7500000), wk =   0.0277778
        k(   48) = (   0.5000000  -0.3333333   0.6666667), wk =   0.0138889
        k(   49) = (  -0.1666667   0.5000000   0.0000000), wk =   0.0138889
        k(   50) = (  -0.2500000   0.5833333  -0.0833333), wk =   0.0277778
        k(   51) = (   0.6666667  -0.3333333   0.8333333), wk =   0.0277778
        k(   52) = (   0.5833333  -0.2500000   0.7500000), wk =   0.0277778
        k(   53) = (   0.5000000  -0.1666667   0.6666667), wk =   0.0277778
        k(   54) = (   0.4166667  -0.0833333   0.5833333), wk =   0.0277778
        k(   55) = (   0.3333333   0.0000000   0.5000000), wk =   0.0138889
        k(   56) = (  -0.1666667   0.6666667  -0.0000000), wk =   0.0138889
        k(   57) = (   0.7500000  -0.2500000   0.9166667), wk =   0.0277778
        k(   58) = (   0.6666667  -0.1666667   0.8333333), wk =   0.0277778
        k(   59) = (   0.5833333  -0.0833333   0.7500000), wk =   0.0277778
        k(   60) = (   0.5000000   0.0000000   0.6666667), wk =   0.0138889
        k(   61) = (   0.8333333  -0.1666667   1.0000000), wk =   0.0138889
        k(   62) = (   0.7500000  -0.0833333   0.9166667), wk =   0.0277778
        k(   63) = (   0.6666667   0.0000000   0.8333333), wk =   0.0138889
        k(   64) = (  -0.1666667  -1.0000000  -0.0000000), wk =   0.0069444
        k(   65) = (   0.6666667  -0.3333333   1.0000000), wk =   0.0138889
        k(   66) = (   0.5833333  -0.2500000   0.9166667), wk =   0.0277778
        k(   67) = (   0.5000000  -0.1666667   0.8333333), wk =   0.0138889
        k(   68) = (   0.6666667  -0.1666667   1.0000000), wk =   0.0138889
        k(   69) = (   0.5833333  -0.0833333   0.9166667), wk =   0.0277778
        k(   70) = (   0.5000000   0.0000000   0.8333333), wk =   0.0138889
        k(   71) = (  -0.3333333  -1.0000000   0.0000000), wk =   0.0069444
        k(   72) = (  -0.5000000  -1.0000000   0.0000000), wk =   0.0034722

     Dense  grid:     6375 G-vectors     FFT dimensions: (  25,  25,  25)

     Estimated max dynamical RAM per process >       4.72 MB

     Estimated total dynamical RAM >     196.01 MB

     Initial potential from superposition of free atoms

     starting charge       9.9998, renormalised to      10.0000
     Starting wfcs are   18 randomized atomic wfcs

     total cpu time spent up to now is        0.3 secs

     Self-consistent Calculation

     iteration #  1     ecut=    60.00 Ry     beta= 0.70
     Davidson diagonalization with overlap
     ethr =  1.00E-02,  avg # of iterations =  5.2

     Threshold (ethr) on eigenvalues was too large:
     Diagonalizing with lowered threshold

     Davidson diagonalization with overlap
     ethr =  7.86E-04,  avg # of iterations =  1.2

     total cpu time spent up to now is        0.6 secs

     total energy              =     -74.69474525 Ry
     estimated scf accuracy    <       0.08361018 Ry

     iteration #  2     ecut=    60.00 Ry     beta= 0.70
     Davidson diagonalization with overlap
     ethr =  8.36E-04,  avg # of iterations =  2.0

     total cpu time spent up to now is        0.6 secs

     total energy              =     -74.71787649 Ry
     estimated scf accuracy    <       0.01274510 Ry

     iteration #  3     ecut=    60.00 Ry     beta= 0.70
     Davidson diagonalization with overlap
     ethr =  1.27E-04,  avg # of iterations =  2.2

     total cpu time spent up to now is        0.7 secs

     total energy              =     -74.72057443 Ry
     estimated scf accuracy    <       0.00002780 Ry

     iteration #  4     ecut=    60.00 Ry     beta= 0.70
     Davidson diagonalization with overlap
     ethr =  2.78E-07,  avg # of iterations =  4.5

     total cpu time spent up to now is        0.9 secs

     total energy              =     -74.72059052 Ry
     estimated scf accuracy    <       0.00000056 Ry

     iteration #  5     ecut=    60.00 Ry     beta= 0.70
     Davidson diagonalization with overlap
     ethr =  5.62E-09,  avg # of iterations =  2.0

     total cpu time spent up to now is        0.9 secs

     total energy              =     -74.72059059 Ry
     estimated scf accuracy    <       0.00000006 Ry

     iteration #  6     ecut=    60.00 Ry     beta= 0.70
     Davidson diagonalization with overlap
     ethr =  5.52E-10,  avg # of iterations =  1.4

     total cpu time spent up to now is        1.0 secs

     total energy              =     -74.72059059 Ry
     estimated scf accuracy    <          7.8E-11 Ry

     iteration #  7     ecut=    60.00 Ry     beta= 0.70
     Davidson diagonalization with overlap
     ethr =  7.83E-13,  avg # of iterations =  3.7

     total cpu time spent up to now is        1.1 secs

     total energy              =     -74.72059060 Ry
     estimated scf accuracy    <          1.6E-11 Ry

     iteration #  8     ecut=    60.00 Ry     beta= 0.70
     Davidson diagonalization with overlap
     ethr =  1.65E-13,  avg # of iterations =  2.0

     total cpu time spent up to now is        1.2 secs

     total energy              =     -74.72059060 Ry
     estimated scf accuracy    <          1.3E-11 Ry

     iteration #  9     ecut=    60.00 Ry     beta= 0.70
     Davidson diagonalization with overlap
     ethr =  1.27E-13,  avg # of iterations =  1.4

     total cpu time spent up to now is        1.2 secs

     End of self-consistent calculation

          k = 0.0000 0.0000 0.0000 (   821 PWs)   bands (ev):

     7.6406   7.6406  13.6964  13.6964  13.6964  13.6964  14.6840  14.6840
    16.5491  16.5491  16.5491  16.5491  35.3046  35.3046  38.9217  38.9217
    40.0851  40.0851

          k =-0.0833 0.0833-0.0833 (   803 PWs)   bands (ev):

     7.9182   7.9182  13.6725  13.6725  13.7642  13.7642  14.7390  14.7390
    16.4492  16.4492  16.5444  16.5444  35.7200  35.7200  37.7930  37.7930
    39.7480  39.7481

          k =-0.1667 0.1667-0.1667 (   800 PWs)   bands (ev):

     8.6902   8.6902  13.5661  13.5661  13.8831  13.8831  14.9656  14.9656
    16.2605  16.2605  16.6313  16.6313  34.9979  34.9979  36.6741  36.6741
    40.3482  40.3482

          k =-0.2500 0.2500-0.2500 (   797 PWs)   bands (ev):

     9.6977   9.6977  13.6365  13.6365  13.8846  13.8846  15.0798  15.0798
    16.4033  16.4033  16.9969  16.9969  31.9270  31.9270  36.6562  36.6562
    40.5576  40.5576

          k =-0.3333 0.3333-0.3333 (   805 PWs)   bands (ev):

    10.3811  10.3811  13.7471  13.7471  14.4954  14.4954  14.8757  14.8757
    17.0329  17.0329  17.6165  17.6165  28.6414  28.6414  35.5291  35.5291
    39.4312  39.4312

          k =-0.4167 0.4167-0.4167 (   796 PWs)   bands (ev):

    10.5492  10.5492  13.5963  13.5963  14.6303  14.6303  16.2043  16.2043
    17.6437  17.6437  18.2098  18.2098  25.6132  25.6132  34.6294  34.6294
    38.0371  38.0371

          k = 0.5000-0.5000 0.5000 (   796 PWs)   bands (ev):

    10.5549  10.5549  13.5349  13.5349  14.5452  14.5452  17.3782  17.3782
    17.7959  17.7959  18.4560  18.4560  24.1175  24.1175  34.3175  34.3175
    37.4761  37.4761

          k = 0.0000 0.1667 0.0000 (   801 PWs)   bands (ev):

     8.0116   8.0116  13.5872  13.5872  13.8539  13.8539  14.7732  14.7732
    16.3138  16.3138  16.6403  16.6403  35.8793  35.8793  38.2055  38.2055
    39.1635  39.1636

          k =-0.0833 0.2500-0.0833 (   795 PWs)   bands (ev):

     8.6252   8.6252  13.4219  13.4219  14.0048  14.0048  14.9901  14.9901
    16.0932  16.0932  16.7488  16.7488  36.0774  36.0774  36.7627  36.7627
    39.1264  39.1264

          k =-0.1667 0.3333-0.1667 (   796 PWs)   bands (ev):

     9.5947   9.5947  13.3087  13.3087  14.0283  14.0283  15.1894  15.1894
    16.1627  16.1627  17.0576  17.0576  33.1380  33.1380  37.1200  37.1200
    39.0543  39.0543

          k =-0.2500 0.4167-0.2500 (   794 PWs)   bands (ev):

    10.4504  10.4504  13.6608  13.6608  13.9214  13.9214  15.0129  15.0129
    16.8912  16.8912  17.6506  17.6506  29.8297  29.8297  36.1590  36.1590
    38.4175  38.4175

          k =-0.3333 0.5000-0.3333 (   791 PWs)   bands (ev):

    10.7478  10.7478  13.6292  13.6292  14.6503  14.6503  15.0748  15.0748
    17.7871  17.7871  18.4214  18.4214  26.5675  26.5675  35.1594  35.1594
    37.4899  37.4899

          k = 0.5833-0.4167 0.5833 (   793 PWs)   bands (ev):

    10.7720  10.7720  13.5230  13.5230  14.5679  14.5679  16.1004  16.1004
    18.1071  18.1071  19.4131  19.4131  24.2442  24.2442  34.6683  34.6683
    36.9077  36.9077

          k = 0.5000-0.3333 0.5000 (   793 PWs)   bands (ev):

    10.7788  10.7788  13.5508  13.5508  14.5933  14.5933  15.9260  15.9260
    17.7854  17.7854  19.2824  19.2824  24.8426  24.8426  34.7467  34.7467
    36.8051  36.8051

          k = 0.4167-0.2500 0.4167 (   792 PWs)   bands (ev):

    10.7157  10.7157  13.6852  13.6852  14.5974  14.5974  14.8338  14.8338
    17.0932  17.0932  18.4404  18.4404  27.6475  27.6475  35.3613  35.3613
    37.4251  37.4251

          k = 0.3333-0.1667 0.3333 (   800 PWs)   bands (ev):

    10.2300  10.2300  13.5247  13.5247  13.9549  13.9549  15.0817  15.0817
    16.3422  16.3422  17.6145  17.6145  30.9499  30.9499  36.3185  36.3185
    38.5864  38.5864

          k = 0.2500-0.0833 0.2500 (   803 PWs)   bands (ev):

     9.2524   9.2524  13.3851  13.3851  13.9995  13.9995  15.1408  15.1408
    16.0103  16.0103  16.9738  16.9738  34.0711  34.0711  36.8794  36.8794
    39.1814  39.1814

          k = 0.1667-0.0000 0.1667 (   805 PWs)   bands (ev):

     8.3652   8.3652  13.5542  13.5542  13.8925  13.8925  14.8773  14.8773
    16.2277  16.2277  16.6577  16.6577  36.2813  36.2813  36.5715  36.5715
    39.1409  39.1409

          k = 0.0000 0.3333 0.0000 (   805 PWs)   bands (ev):

     9.0518   9.0518  13.1319  13.1319  14.2341  14.2341  15.2376  15.2376
    15.8488  15.8488  16.9186  16.9186  37.0939  37.0939  37.4251  37.4251
    37.5986  37.5986

          k =-0.0833 0.4167-0.0833 (   806 PWs)   bands (ev):

     9.8707   9.8707  12.8572  12.8572  14.2625  14.2625  15.5331  15.5331
    15.9783  15.9783  17.1996  17.1996  34.5540  34.5540  37.1252  37.1252
    38.0194  38.0194

          k =-0.1667 0.5000-0.1667 (   801 PWs)   bands (ev):

    10.7782  10.7782  12.8474  12.8474  13.9859  13.9859  15.4640  15.4640
    16.9143  16.9143  17.7721  17.7721  31.1673  31.1673  36.2174  36.2174
    37.2005  37.2005

          k =-0.2500 0.5833-0.2500 (   799 PWs)   bands (ev):

    11.2201  11.2201  13.3363  13.3363  13.8422  13.8422  15.2748  15.2748
    17.9398  17.9398  18.8069  18.8069  27.6925  27.6925  35.2929  35.2929
    36.3057  36.3057

          k = 0.6667-0.3333 0.6667 (   792 PWs)   bands (ev):

    11.3019  11.3019  13.3175  13.3175  14.4880  14.4880  15.2104  15.2104
    18.1758  18.1758  20.5968  20.5968  24.7233  24.7233  34.4242  34.4242
    36.2161  36.2161

          k = 0.5833-0.2500 0.5833 (   791 PWs)   bands (ev):

    11.3589  11.3589  13.3152  13.3152  14.6817  14.6817  15.2354  15.2354
    17.7975  17.7975  21.1548  21.1548  24.2941  24.2941  33.7622  33.7622
    36.4167  36.4167

          k = 0.5000-0.1667 0.5000 (   792 PWs)   bands (ev):

    11.4080  11.4080  13.4586  13.4586  14.2855  14.2855  15.0135  15.0135
    17.0473  17.0473  19.9122  19.9122  26.9401  26.9401  33.6458  33.6458
    36.6932  36.6932

          k = 0.4167-0.0833 0.4167 (   799 PWs)   bands (ev):

    11.1307  11.1307  13.2521  13.2521  13.8789  13.8789  15.2197  15.2197
    16.2110  16.2110  18.7766  18.7766  30.0591  30.0591  34.1949  34.1949
    37.6468  37.6468

          k = 0.3333 0.0000 0.3333 (   801 PWs)   bands (ev):

    10.2049  10.2049  13.1458  13.1458  14.0364  14.0364  15.4508  15.4508
    15.6763  15.6763  17.7417  17.7417  32.6969  32.6969  35.4534  35.4534
    39.2525  39.2525

          k = 0.0000 0.5000 0.0000 (   817 PWs)   bands (ev):

    10.4026  10.4026  12.4605  12.4605  14.5121  14.5121  16.0056  16.0056
    16.0860  16.0860  17.3634  17.3634  34.6488  34.6488  36.5688  36.5688
    37.1314  37.1314

          k =-0.0833 0.5833-0.0833 (   806 PWs)   bands (ev):

    11.0183  11.0183  12.2148  12.2148  14.5110  14.5110  16.2444  16.2444
    16.9063  16.9063  17.8340  17.8340  32.2396  32.2396  34.6757  34.6757
    36.2953  36.2953

          k =-0.1667 0.6667-0.1667 (   787 PWs)   bands (ev):

    11.4364  11.4364  12.3377  12.3377  14.3376  14.3376  16.1328  16.1328
    18.0083  18.0083  18.9855  18.9855  28.8532  28.8532  33.5801  33.5801
    34.8627  34.8627

          k = 0.7500-0.2500 0.7500 (   788 PWs)   bands (ev):

    11.6081  11.6081  12.7290  12.7290  14.2819  14.2819  15.9152  15.9152
    18.2595  18.2595  21.2031  21.2031  25.6573  25.6573  32.5347  32.5347
    34.5231  34.5231

          k = 0.6667-0.1667 0.6667 (   791 PWs)   bands (ev):

    11.8273  11.8273  12.9716  12.9716  14.2875  14.2875  15.7056  15.7056
    17.8814  17.8814  22.9671  22.9671  24.0623  24.0623  31.2782  31.2782
    35.6057  35.6057

          k = 0.5833-0.0833 0.5833 (   790 PWs)   bands (ev):

    12.1001  12.1001  13.1507  13.1507  13.9057  13.9057  15.5300  15.5300
    17.1575  17.1575  21.3402  21.3402  26.8487  26.8487  30.5244  30.5244
    37.4464  37.4471

          k = 0.5000 0.0000 0.5000 (   792 PWs)   bands (ev):

    12.0321  12.0321  13.1314  13.1314  13.6122  13.6122  15.4214  15.4214
    16.4606  16.4606  20.0577  20.0577  29.0517  29.0517  31.4058  31.4058
    37.5996  37.5996

          k = 0.0000 0.6667 0.0000 (   797 PWs)   bands (ev):

    11.0738  11.0738  11.8274  11.8274  15.5313  15.5313  16.9968  16.9968
    17.0535  17.0535  17.9685  17.9685  31.6522  31.6522  33.8458  33.8458
    34.0717  34.0717

          k =-0.0833 0.7500-0.0833 (   787 PWs)   bands (ev):

    11.1743  11.1743  11.6890  11.6890  15.8006  15.8006  17.1544  17.1544
    18.0174  18.0174  18.8893  18.8893  29.5206  29.5206  31.9064  31.9064
    32.9325  32.9325

          k = 0.8333-0.1667 0.8333 (   788 PWs)   bands (ev):

    11.3460  11.3460  11.9067  11.9067  15.4482  15.4482  16.9193  16.9193
    18.3865  18.3865  21.1828  21.1828  26.7136  26.7136  30.6883  30.6883
    32.5113  32.5113

          k = 0.7500-0.0833 0.7500 (   788 PWs)   bands (ev):

    11.6162  11.6162  12.3983  12.3983  14.8819  14.8819  16.5692  16.5692
    18.0844  18.0844  23.8613  23.8613  24.4878  24.4878  29.2532  29.2532
    33.5020  33.5020

          k = 0.6667-0.0000 0.6667 (   792 PWs)   bands (ev):

    11.9963  11.9963  12.9247  12.9247  14.1638  14.1638  16.1110  16.1110
    17.5365  17.5365  22.6213  22.6213  26.9024  26.9024  28.1050  28.1050
    35.3905  35.3905

          k = 0.0000 0.8333 0.0000 (   789 PWs)   bands (ev):

    10.9294  10.9294  11.3936  11.3936  17.4561  17.4561  17.6810  17.6810
    18.3942  18.3942  18.7551  18.7551  28.8164  28.8164  30.5390  30.5390
    31.6651  31.6651

          k = 0.9167-0.0833 0.9167 (   781 PWs)   bands (ev):

    10.9646  10.9646  11.3979  11.3979  17.0785  17.0785  17.7245  17.7245
    18.6575  18.6575  20.5603  20.5603  27.1699  27.1699  29.6441  29.6441
    31.1051  31.1051

          k = 0.8333 0.0000 0.8333 (   786 PWs)   bands (ev):

    11.2328  11.2328  11.7524  11.7524  16.0543  16.0543  17.3031  17.3031
    18.4240  18.4240  22.7695  22.7695  25.6035  25.6035  28.9558  28.9558
    31.7580  31.7580

          k = 0.0000-1.0000 0.0000 (   790 PWs)   bands (ev):

    10.7986  10.7986  11.2408  11.2408  17.8675  17.8675  18.1955  18.1955
    19.1754  19.1754  19.6306  19.6306  27.1106  27.1106  29.2988  29.2988
    30.7982  30.7982

          k =-0.1667 0.3333 0.0000 (   804 PWs)   bands (ev):

     9.3578   9.3578  13.1760  13.1760  14.1271  14.1271  15.2795  15.2795
    15.8843  15.8843  17.0481  17.0481  34.8542  34.8542  36.8190  36.8190
    38.6826  38.6826

          k =-0.2500 0.4167-0.0833 (   796 PWs)   bands (ev):

    10.3530  10.3530  13.0585  13.0585  14.0149  14.0149  15.3758  15.3758
    16.1256  16.1256  17.7065  17.7065  32.1822  32.1822  35.9538  35.9538
    38.3011  38.3011

          k =-0.3333 0.5000-0.1667 (   799 PWs)   bands (ev):

    11.0452  11.0452  13.4969  13.4969  13.7937  13.7937  15.1472  15.1472
    16.9611  16.9611  18.6494  18.6494  28.8670  28.8670  35.2447  35.2447
    36.8109  36.8109

          k = 0.5833-0.4167 0.7500 (   794 PWs)   bands (ev):

    11.1806  11.1806  13.4531  13.4531  14.5138  14.5138  15.0958  15.0958
    17.7341  17.7341  19.8469  19.8469  25.7162  25.7162  34.8159  34.8159
    35.9142  35.9142

          k = 0.5000-0.3333 0.6667 (   798 PWs)   bands (ev):

    11.1750  11.1750  13.3652  13.3652  14.6682  14.6682  15.4229  15.4229
    17.9992  17.9992  20.8816  20.8816  23.9251  23.9251  34.7190  34.7190
    35.6453  35.6453

          k =-0.1667 0.5000 0.0000 (   806 PWs)   bands (ev):

    10.6712  10.6712  12.5814  12.5814  14.1515  14.1515  15.9518  15.9518
    16.2035  16.2035  17.7324  17.7324  33.0296  33.0296  35.1330  35.1330
    37.6664  37.6664

          k =-0.2500 0.5833-0.0833 (   794 PWs)   bands (ev):

    11.4271  11.4271  12.6075  12.6075  13.8404  13.8404  15.9288  15.9288
    17.0267  17.0267  18.7510  18.7510  30.0786  30.0786  33.8582  33.8582
    36.1962  36.1962

          k = 0.6667-0.3333 0.8333 (   792 PWs)   bands (ev):

    11.6779  11.6779  13.0249  13.0249  13.7803  13.7803  15.7132  15.7132
    17.8254  17.8254  20.2618  20.2618  26.8253  26.8253  33.3277  33.3277
    34.9807  34.9807

          k = 0.5833-0.2500 0.7500 (   794 PWs)   bands (ev):

    11.7680  11.7680  13.0186  13.0186  14.2469  14.2469  15.5302  15.5302
    17.9793  17.9793  22.2904  22.2904  24.1058  24.1058  32.8569  32.8569
    34.6673  34.6673

          k = 0.5000-0.1667 0.6667 (   795 PWs)   bands (ev):

    11.8810  11.8810  13.0658  13.0658  14.1500  14.1500  15.4651  15.4651
    17.6117  17.6117  21.5654  21.5654  25.3237  25.3237  32.1944  32.1944
    35.4870  35.4870

          k = 0.4167-0.0833 0.5833 (   794 PWs)   bands (ev):

    11.9126  11.9126  13.2088  13.2088  13.4777  13.4777  15.5734  15.5734
    16.8811  16.8811  20.0704  20.0704  28.2112  28.2112  32.2131  32.2131
    36.4754  36.4754

          k = 0.3333 0.0000 0.5000 (   802 PWs)   bands (ev):

    11.3471  11.3471  12.8792  12.8792  13.7505  13.7505  15.7009  15.7009
    16.1394  16.1394  18.8108  18.8108  30.7545  30.7545  33.4643  33.4643
    37.4734  37.4734

          k =-0.1667 0.6667-0.0000 (   793 PWs)   bands (ev):

    11.3670  11.3670  12.0086  12.0086  14.6665  14.6665  16.9525  16.9525
    17.1214  17.1214  18.7247  18.7247  30.5512  30.5512  32.6795  32.6795
    34.6212  34.6212

          k = 0.7500-0.2500 0.9167 (   788 PWs)   bands (ev):

    11.6215  11.6215  12.1526  12.1526  14.5142  14.5142  16.7446  16.7446
    17.9274  17.9274  20.3914  20.3914  27.8934  27.8934  31.4751  31.4751
    33.3219  33.3219

          k = 0.6667-0.1667 0.8333 (   785 PWs)   bands (ev):

    11.8183  11.8183  12.5490  12.5490  14.3055  14.3055  16.3603  16.3603
    18.1262  18.1262  22.7637  22.7637  25.1700  25.1700  30.6159  30.6159
    33.0812  33.0812

          k = 0.5833-0.0833 0.7500 (   792 PWs)   bands (ev):

    12.1479  12.1479  12.8511  12.8511  13.9600  13.9600  16.0393  16.0393
    17.7695  17.7695  22.9873  22.9873  25.6104  25.6104  29.4071  29.4071
    34.1906  34.1906

          k = 0.5000 0.0000 0.6667 (   786 PWs)   bands (ev):

    12.4890  12.4890  12.9920  12.9920  13.3852  13.3852  15.8973  15.8973
    17.1837  17.1837  21.4468  21.4468  27.9878  27.9878  29.2501  29.2501
    35.6139  35.6139

          k = 0.8333-0.1667 1.0000 (   788 PWs)   bands (ev):

    11.2060  11.2060  11.6112  11.6112  15.9583  15.9583  17.5702  17.5702
    18.2189  18.2189  20.3160  20.3160  28.0345  28.0345  30.3448  30.3448
    31.7822  31.7822

          k = 0.7500-0.0833 0.9167 (   783 PWs)   bands (ev):

    11.4207  11.4207  11.8750  11.8750  15.4668  15.4668  17.1468  17.1468
    18.4514  18.4514  22.5479  22.5479  26.1301  26.1301  29.2906  29.2906
    31.4465  31.4465

          k = 0.6667 0.0000 0.8333 (   780 PWs)   bands (ev):

    11.7610  11.7610  12.4134  12.4134  14.6711  14.6711  16.5839  16.5839
    18.1802  18.1802  24.2065  24.2065  25.1183  25.1183  28.3123  28.3123
    32.5352  32.5352

          k =-0.1667-1.0000-0.0000 (   790 PWs)   bands (ev):

    11.0654  11.0654  11.4705  11.4705  16.6715  16.6715  17.6355  17.6355
    18.7376  18.7376  21.6100  21.6100  26.5091  26.5091  29.2907  29.2907
    30.7212  30.7212

          k = 0.6667-0.3333 1.0000 (   789 PWs)   bands (ev):

    12.1282  12.1282  12.5274  12.5274  13.5242  13.5242  16.4528  16.4528
    17.0756  17.0756  20.1854  20.1854  28.8903  28.8903  31.1894  31.1894
    34.9261  34.9261

          k = 0.5833-0.2500 0.9167 (   789 PWs)   bands (ev):

    12.3317  12.3317  12.7751  12.7751  13.4822  13.4822  16.1993  16.1993
    17.7171  17.7171  21.8759  21.8759  26.6583  26.6583  30.3554  30.3554
    33.6798  33.6798

          k = 0.5000-0.1667 0.8333 (   794 PWs)   bands (ev):

    12.4307  12.4307  12.6443  12.6443  13.7680  13.7680  15.9899  15.9899
    17.9677  17.9677  23.9097  23.9097  24.2183  24.2183  30.5270  30.5270
    32.9904  32.9904

          k = 0.6667-0.1667 1.0000 (   786 PWs)   bands (ev):

    11.9071  11.9071  12.2518  12.2518  14.2923  14.2923  16.8199  16.8199
    18.1219  18.1219  22.1757  22.1757  27.2004  27.2004  29.2549  29.2549
    32.0099  32.0099

          k = 0.5833-0.0833 0.9167 (   783 PWs)   bands (ev):

    12.1171  12.1171  12.6751  12.6751  13.9118  13.9118  16.3256  16.3256
    18.3643  18.3643  24.2240  24.2240  25.6455  25.6455  28.4513  28.4513
    31.4737  31.4737

          k = 0.5000 0.0000 0.8333 (   788 PWs)   bands (ev):

    12.3733  12.3733  13.0112  13.0112  13.3620  13.3620  16.1820  16.1820
    18.1118  18.1118  23.4306  23.4306  26.9524  26.9524  27.8229  27.8229
    32.3320  32.3320

          k =-0.3333-1.0000 0.0000 (   782 PWs)   bands (ev):

    11.7285  11.7285  12.1516  12.1516  14.8220  14.8220  16.7319  16.7319
    18.6279  18.6279  24.0135  24.0135  25.7672  25.7672  28.4363  28.4363
    30.6833  30.6833

          k =-0.5000-1.0000 0.0000 (   772 PWs)   bands (ev):

    12.1773  12.1773  13.1530  13.1530  13.4106  13.4106  16.1362  16.1362
    18.6049  18.6049  25.4238  25.4238  25.8096  25.8096  27.2198  27.2198
    30.6771  30.6771

     the Fermi energy is    18.1605 ev

!    total energy              =     -74.72059060 Ry
     estimated scf accuracy    <          7.9E-14 Ry
     smearing contrib. (-TS)   =      -0.00789859 Ry
     internal energy E=F+TS    =     -74.71269201 Ry

     The total energy is F=E-TS. E is the sum of the following terms:
     one-electron contribution =      17.62259900 Ry
     hartree contribution      =       3.74958956 Ry
     xc contribution           =     -34.06526534 Ry
     ewald contribution        =     -62.01961522 Ry

     convergence has been achieved in   9 iterations

     Forces acting on atoms (cartesian axes, Ry/au):

     atom    1 type  1   force =     0.00000000    0.00000000    0.00000000

     Total force =     0.000000     Total SCF correction =     0.000000


     Computing stress (Cartesian axis) and pressure

          total   stress  (Ry/bohr**3)                   (kbar)     P=      136.74
   0.00092956   0.00000000   0.00000000          136.74        0.00        0.00
   0.00000000   0.00092956   0.00000000            0.00      136.74        0.00
   0.00000000   0.00000000   0.00092956            0.00        0.00      136.74


     Writing all to output data dir ./temp/Pt.save/
 
     init_run     :      0.16s CPU      0.20s WALL (       1 calls)
     electrons    :      0.89s CPU      0.97s WALL (       1 calls)
     forces       :      0.01s CPU      0.01s WALL (       1 calls)
     stress       :      0.02s CPU      0.02s WALL (       1 calls)

     Called by init_run:
     wfcinit      :      0.04s CPU      0.06s WALL (       1 calls)
     potinit      :      0.07s CPU      0.07s WALL (       1 calls)
     hinit0       :      0.03s CPU      0.04s WALL (       1 calls)

     Called by electrons:
     c_bands      :      0.70s CPU      0.74s WALL (      10 calls)
     sum_band     :      0.12s CPU      0.13s WALL (      10 calls)
     v_of_rho     :      0.02s CPU      0.02s WALL (      10 calls)
     mix_rho      :      0.01s CPU      0.01s WALL (      10 calls)

     Called by c_bands:
     init_us_2    :      0.01s CPU      0.01s WALL (     115 calls)
     init_us_2:cp :      0.01s CPU      0.01s WALL (     115 calls)
     cegterg      :      0.59s CPU      0.63s WALL (      50 calls)

     Called by *egterg:
     cdiaghg      :      0.07s CPU      0.07s WALL (     204 calls)
     h_psi        :      0.49s CPU      0.52s WALL (     214 calls)
     g_psi        :      0.01s CPU      0.01s WALL (     159 calls)

     Called by h_psi:
     h_psi:calbec :      0.01s CPU      0.01s WALL (     214 calls)
     vloc_psi     :      0.47s CPU      0.50s WALL (     214 calls)
     add_vuspsi   :      0.01s CPU      0.01s WALL (     214 calls)

     General routines
     calbec       :      0.01s CPU      0.01s WALL (     239 calls)
     fft          :      0.01s CPU      0.01s WALL (     155 calls)
     ffts         :      0.00s CPU      0.00s WALL (      40 calls)
     fftw         :      0.48s CPU      0.51s WALL (   11612 calls)
 
     Parallel routines
 
     PWSCF        :      1.14s CPU      1.35s WALL

 
   This run was terminated on:  15: 4: 5  13May2022            

=------------------------------------------------------------------------------=
   JOB DONE.
=------------------------------------------------------------------------------=
