# File written on 14Oct2024 at 14:54:24 

calc_only_A  :  F

begin real_lattice
   1.4349963   1.4349963   1.4349963
  -1.4349963   1.4349963   1.4349963
  -1.4349963  -1.4349963   1.4349963
end real_lattice

begin recip_lattice
   2.1892688   0.0000000   2.1892688
  -2.1892688   2.1892688   0.0000000
   0.0000000  -2.1892688   2.1892688
end recip_lattice

begin kpoints
     8
    0.00000000    0.00000000    0.00000000
    0.00000000    0.00000000    0.50000000
    0.00000000    0.50000000    0.00000000
    0.00000000    0.50000000    0.50000000
    0.50000000    0.00000000    0.00000000
    0.50000000    0.00000000    0.50000000
    0.50000000    0.50000000    0.00000000
    0.50000000    0.50000000    0.50000000
end kpoints

begin spinor_projections
    18
   0.00000    0.00000    0.00000     0  1  1
    0.0000000  0.0000000  1.0000000   1.0000000  0.0000000  0.0000000    1.00
    1   0.0000000  0.0000000  1.0000000
   0.00000    0.00000    0.00000     0  1  1
    0.0000000  0.0000000  1.0000000   1.0000000  0.0000000  0.0000000    1.00
   -1   0.0000000  0.0000000  1.0000000
   0.00000    0.00000    0.00000     1  1  1
    0.0000000  0.0000000  1.0000000   1.0000000  0.0000000  0.0000000    1.00
    1   0.0000000  0.0000000  1.0000000
   0.00000    0.00000    0.00000     1  1  1
    0.0000000  0.0000000  1.0000000   1.0000000  0.0000000  0.0000000    1.00
   -1   0.0000000  0.0000000  1.0000000
   0.00000    0.00000    0.00000     1  2  1
    0.0000000  0.0000000  1.0000000   1.0000000  0.0000000  0.0000000    1.00
    1   0.0000000  0.0000000  1.0000000
   0.00000    0.00000    0.00000     1  2  1
    0.0000000  0.0000000  1.0000000   1.0000000  0.0000000  0.0000000    1.00
   -1   0.0000000  0.0000000  1.0000000
   0.00000    0.00000    0.00000     1  3  1
    0.0000000  0.0000000  1.0000000   1.0000000  0.0000000  0.0000000    1.00
    1   0.0000000  0.0000000  1.0000000
   0.00000    0.00000    0.00000     1  3  1
    0.0000000  0.0000000  1.0000000   1.0000000  0.0000000  0.0000000    1.00
   -1   0.0000000  0.0000000  1.0000000
   0.00000    0.00000    0.00000     2  1  1
    0.0000000  0.0000000  1.0000000   1.0000000  0.0000000  0.0000000    1.00
    1   0.0000000  0.0000000  1.0000000
   0.00000    0.00000    0.00000     2  1  1
    0.0000000  0.0000000  1.0000000   1.0000000  0.0000000  0.0000000    1.00
   -1   0.0000000  0.0000000  1.0000000
   0.00000    0.00000    0.00000     2  2  1
    0.0000000  0.0000000  1.0000000   1.0000000  0.0000000  0.0000000    1.00
    1   0.0000000  0.0000000  1.0000000
   0.00000    0.00000    0.00000     2  2  1
    0.0000000  0.0000000  1.0000000   1.0000000  0.0000000  0.0000000    1.00
   -1   0.0000000  0.0000000  1.0000000
   0.00000    0.00000    0.00000     2  3  1
    0.0000000  0.0000000  1.0000000   1.0000000  0.0000000  0.0000000    1.00
    1   0.0000000  0.0000000  1.0000000
   0.00000    0.00000    0.00000     2  3  1
    0.0000000  0.0000000  1.0000000   1.0000000  0.0000000  0.0000000    1.00
   -1   0.0000000  0.0000000  1.0000000
   0.00000    0.00000    0.00000     2  4  1
    0.0000000  0.0000000  1.0000000   1.0000000  0.0000000  0.0000000    1.00
    1   0.0000000  0.0000000  1.0000000
   0.00000    0.00000    0.00000     2  4  1
    0.0000000  0.0000000  1.0000000   1.0000000  0.0000000  0.0000000    1.00
   -1   0.0000000  0.0000000  1.0000000
   0.00000    0.00000    0.00000     2  5  1
    0.0000000  0.0000000  1.0000000   1.0000000  0.0000000  0.0000000    1.00
    1   0.0000000  0.0000000  1.0000000
   0.00000    0.00000    0.00000     2  5  1
    0.0000000  0.0000000  1.0000000   1.0000000  0.0000000  0.0000000    1.00
   -1   0.0000000  0.0000000  1.0000000
end spinor_projections

begin nnkpts
  12
       1       2      0   0   0
       1       3      0   0   0
       1       4      0   0   0
       1       5      0   0   0
       1       7      0   0   0
       1       6      0   0  -1
       1       2      0   0  -1
       1       3      0  -1   0
       1       4      0  -1  -1
       1       5     -1   0   0
       1       7     -1  -1   0
       1       6     -1   0   0
       2       1      0   0   1
       2       4      0   0   0
       2       3      0   0   1
       2       6      0   0   0
       2       8      0   0   0
       2       5      0   0   0
       2       1      0   0   0
       2       4      0  -1   0
       2       3      0  -1   0
       2       6     -1   0   0
       2       8     -1  -1   0
       2       5     -1   0   1
       3       4      0   0   0
       3       1      0   1   0
       3       2      0   1   0
       3       7      0   0   0
       3       5      0   1   0
       3       8      0   0  -1
       3       4      0   0  -1
       3       1      0   0   0
       3       2      0   0  -1
       3       7     -1   0   0
       3       5     -1   0   0
       3       8     -1   0   0
       4       3      0   0   1
       4       2      0   1   0
       4       1      0   1   1
       4       8      0   0   0
       4       6      0   1   0
       4       7      0   0   0
       4       3      0   0   0
       4       2      0   0   0
       4       1      0   0   0
       4       8     -1   0   0
       4       6     -1   0   0
       4       7     -1   0   1
       5       6      0   0   0
       5       7      0   0   0
       5       8      0   0   0
       5       1      1   0   0
       5       3      1   0   0
       5       2      1   0  -1
       5       6      0   0  -1
       5       7      0  -1   0
       5       8      0  -1  -1
       5       1      0   0   0
       5       3      0  -1   0
       5       2      0   0   0
       6       5      0   0   1
       6       8      0   0   0
       6       7      0   0   1
       6       2      1   0   0
       6       4      1   0   0
       6       1      1   0   0
       6       5      0   0   0
       6       8      0  -1   0
       6       7      0  -1   0
       6       2      0   0   0
       6       4      0  -1   0
       6       1      0   0   1
       7       8      0   0   0
       7       5      0   1   0
       7       6      0   1   0
       7       3      1   0   0
       7       1      1   1   0
       7       4      1   0  -1
       7       8      0   0  -1
       7       5      0   0   0
       7       6      0   0  -1
       7       3      0   0   0
       7       1      0   0   0
       7       4      0   0   0
       8       7      0   0   1
       8       6      0   1   0
       8       5      0   1   1
       8       4      1   0   0
       8       2      1   1   0
       8       3      1   0   0
       8       7      0   0   0
       8       6      0   0   0
       8       5      0   0   0
       8       4      0   0   0
       8       2      0   0   0
       8       3      0   0   1
end nnkpts

begin exclude_bands
   0
end exclude_bands
