 
             +---------------------------------------------------+
             |                                                   |
             |                   WANNIER90                       |
             |                                                   |
             +---------------------------------------------------+
             |                                                   |
             |        Welcome to the Maximally-Localized         |
             |        Generalized Wannier Functions code         |
             |            http://www.wannier.org                 |
             |                                                   |
             |  Wannier90 v2.x Authors:                          |
             |    Arash A. Mostofi  (Imperial College London)    |
             |    Giovanni Pizzi    (EPFL)                       |
             |    Ivo Souza         (Universidad del Pais Vasco) |
             |    Jonathan R. Yates (University of Oxford)       |
             |                                                   |
             |  Wannier90 Contributors:                          |
             |    Young-Su Lee       (KIST, S. Korea)            |
             |    Matthew Shelley    (Imperial College London)   |
             |    Nicolas Poilvert   (Penn State University)     |
             |    Raffaello Bianco   (Paris 6 and CNRS)          |
             |    Gabriele Sclauzero (ETH Zurich)                |
             |    David Strubbe (MIT, USA)                       |
             |    Rei Sakuma (Lund University, Sweden)           |
             |    Yusuke Nomura (U. Tokyo, Japan)                |
             |    Takashi Koretsune (Riken, Japan)               |
             |    Yoshiro Nohara (ASMS Co. Ltd., Japan)          |
             |    Ryotaro Arita (Riken, Japan)                   |
             |    Lorenzo Paulatto (UPMC Paris)                  |
             |    Florian Thole (ETH Zurich)                     |
             |    Pablo Garcia Fernandez (Unican, Spain)         |
             |    Dominik Gresch (ETH Zurich)                    |
             |    Samuel Ponce (University of Oxford)            |
             |    Marco Gibertini (EPFL)                         |
             |    Christian Stieger (ETHZ, CH)                   |
             |    Stepan Tsirkin (Universidad del Pais Vasco)    |
             |                                                   |
             |  Wannier77 Authors:                               |
             |    Nicola Marzari    (EPFL)                       |
             |    Ivo Souza         (Universidad del Pais Vasco) |
             |    David Vanderbilt  (Rutgers University)         |
             |                                                   |
             |  Please cite                                      |
             |                                                   |
             |  [ref] "An updated version of Wannier90:          |
             |        A Tool for Obtaining Maximally Localised   |
             |        Wannier Functions", A. A. Mostofi,         |
             |        J. R. Yates, G. Pizzi, Y. S. Lee,          |
             |        I. Souza, D. Vanderbilt and N. Marzari,    |
             |        Comput. Phys. Commun. 185, 2309 (2014)     |
             |        http://dx.doi.org/10.1016/j.cpc.2014.05.003|
             |                                                   |
             |  in any publications arising from the use of      |
             |  this code. For the method please cite            |
             |                                                   |
             |  [ref] "Maximally Localized Generalised Wannier   |
             |         Functions for Composite Energy Bands"     |
             |         N. Marzari and D. Vanderbilt              |
             |         Phys. Rev. B 56 12847 (1997)              |
             |                                                   |
             |  [ref] "Maximally Localized Wannier Functions     |
             |         for Entangled Energy Bands"               |
             |         I. Souza, N. Marzari and D. Vanderbilt    |
             |         Phys. Rev. B 65 035109 (2001)             |
             |                                                   |
             |                                                   |
             | Copyright (c) 1996-2017                           |
             |        Arash A. Mostofi, Jonathan R. Yates,       |
             |        Young-Su Lee, Giovanni Pizzi, Ivo Souza,   |
             |        David Vanderbilt and Nicola Marzari        |
             |                                                   |
             |      Release: 2.1.0+git   13th January 2017       |
             |                                                   |
             | This program is free software; you can            |
             | redistribute it and/or modify it under the terms  |
             | of the GNU General Public License as published by |
             | the Free Software Foundation; either version 2 of |
             | the License, or (at your option) any later version|
             |                                                   |
             | This program is distributed in the hope that it   |
             | will be useful, but WITHOUT ANY WARRANTY; without |
             | even the implied warranty of MERCHANTABILITY or   |
             | FITNESS FOR A PARTICULAR PURPOSE. See the GNU     |
             | General Public License for more details.          |
             |                                                   |
             | You should have received a copy of the GNU General|
             | Public License along with this program; if not,   |
             | write to the Free Software Foundation, Inc.,      |
             | 675 Mass Ave, Cambridge, MA 02139, USA.           |
             |                                                   |
             +---------------------------------------------------+
             |    Execution started on  4Jan2022 at 17:46:18     |
             +---------------------------------------------------+
 
 ******************************************************************************
 * -> Using CODATA 2006 constant values                                       *
 *    (http://physics.nist.gov/cuu/Constants/index.html)                      *
 * -> Using Bohr value from CODATA                                            *
 ******************************************************************************
 

 Running in serial (with parallel executable)
 
                                    ------
                                    SYSTEM
                                    ------
 
                              Lattice Vectors (Ang)
                    a_1     1.434996   1.434996   1.434996
                    a_2    -1.434996   1.434996   1.434996
                    a_3    -1.434996  -1.434996   1.434996
 
                   Unit Cell Volume:      11.81986  (Ang^3)
 
                        Reciprocal-Space Vectors (Ang^-1)
                    b_1     2.189269   0.000000   2.189269
                    b_2    -2.189269   2.189269   0.000000
                    b_3     0.000000  -2.189269   2.189269
  
 *----------------------------------------------------------------------------*
 |   Site       Fractional Coordinate          Cartesian Coordinate (Ang)     |
 +----------------------------------------------------------------------------+
 | Fe   1   0.00000   0.00000   0.00000   |    0.00000   0.00000   0.00000    |
 *----------------------------------------------------------------------------*
  
                                ------------
                                K-POINT GRID
                                ------------
  
             Grid size =  3 x  3 x  3      Total points =   27
  
  
 *---------------------------------- MAIN ------------------------------------*
 |  Number of Wannier Functions               :                18             |
 |  Number of input Bloch states              :                20             |
 |  Output verbosity (1=low, 5=high)          :                 1             |
 |  Timing Level (1=low, 5=high)              :                 1             |
 |  Optimisation (0=memory, 3=speed)          :                 3             |
 |  Length Unit                               :               Ang             |
 |  Post-processing setup (write *.nnkp)      :                 F             |
 |  Using Gamma-only branch of algorithms     :                 F             |
 *----------------------------------------------------------------------------*
 *------------------------------- WANNIERISE ---------------------------------*
 |  Total number of iterations                :                 0             |
 |  Number of CG steps before reset           :                 5             |
 |  Trial step length for line search         :             2.000             |
 |  Convergence tolerence                     :         0.100E-09             |
 |  Convergence window                        :                 5             |
 |  Iterations between writing output         :                 1             |
 |  Iterations between backing up to disk     :               100             |
 |  Write r^2_nm to file                      :                 F             |
 |  Write xyz WF centres to file              :                 F             |
 |  Write on-site energies <0n|H|0n> to file  :                 F             |
 |  Use guiding centre to control phases      :                 F             |
 |  Use phases for initial projections        :                 F             |
 *----------------------------------------------------------------------------*
 *------------------------------- DISENTANGLE --------------------------------*
 |  Using band disentanglement                :                 T             |
 |  Total number of iterations                :              2000             |
 |  Mixing ratio                              :             1.000             |
 |  Convergence tolerence                     :         1.000E-10             |
 |  Convergence window                        :                 3             |
 *----------------------------------------------------------------------------*
 Time to read parameters        0.009 (sec)

 *---------------------------------- K-MESH ----------------------------------*
 +----------------------------------------------------------------------------+
 |                    Distance to Nearest-Neighbour Shells                    |
 |                    ------------------------------------                    |
 |          Shell             Distance (Ang^-1)          Multiplicity         |
 |          -----             -----------------          ------------         |
 |             1                   1.032031                     12            |
 |             2                   1.459513                      6            |
 |             3                   1.787531                     24            |
 |             4                   2.064062                     12            |
 |             5                   2.307692                     24            |
 |             6                   2.527950                      8            |
 |             7                   2.730498                     48            |
 |             8                   2.919025                      6            |
 |             9                   3.096094                     36            |
 |            10                   3.263569                     24            |
 |            11                   3.422860                     24            |
 |            12                   3.575061                     24            |
 +----------------------------------------------------------------------------+
 | The b-vectors are chosen automatically                                     |
 | The following shells are used:   1                                         |
 +----------------------------------------------------------------------------+
 |                        Shell   # Nearest-Neighbours                        |
 |                        -----   --------------------                        |
 |                          1              12                                 |
 +----------------------------------------------------------------------------+
 | Completeness relation is fully satisfied [Eq. (B1), PRB 56, 12847 (1997)]  |
 +----------------------------------------------------------------------------+
 |                  b_k Vectors (Ang^-1) and Weights (Ang^2)                  |
 |                  ----------------------------------------                  |
 |            No.         b_k(x)      b_k(y)      b_k(z)        w_b           |
 |            ---        --------------------------------     --------        |
 |             1         0.000000   -0.729756    0.729756     0.234722        |
 |             2        -0.729756    0.729756    0.000000     0.234722        |
 |             3        -0.729756    0.000000    0.729756     0.234722        |
 |             4         0.729756    0.000000    0.729756     0.234722        |
 |             5         0.000000    0.729756    0.729756     0.234722        |
 |             6         0.000000    0.729756   -0.729756     0.234722        |
 |             7         0.729756    0.729756    0.000000     0.234722        |
 |             8         0.729756   -0.729756    0.000000     0.234722        |
 |             9         0.729756    0.000000   -0.729756     0.234722        |
 |            10        -0.729756    0.000000   -0.729756     0.234722        |
 |            11        -0.729756   -0.729756    0.000000     0.234722        |
 |            12         0.000000   -0.729756   -0.729756     0.234722        |
 +----------------------------------------------------------------------------+
 |                           b_k Directions (Ang^-1)                          |
 |                           -----------------------                          |
 |            No.           x           y           z                         |
 |            ---        --------------------------------                     |
 |             1         0.000000   -0.729756    0.729756                     |
 |             2        -0.729756    0.729756    0.000000                     |
 |             3        -0.729756    0.000000    0.729756                     |
 |             4         0.729756    0.000000    0.729756                     |
 |             5         0.000000    0.729756    0.729756                     |
 |             6         0.729756    0.729756    0.000000                     |
 +----------------------------------------------------------------------------+
  
 Time to get kmesh              0.024 (sec)
 *============================================================================*
 |                              MEMORY ESTIMATE                               |
 |         Maximum RAM allocated during each phase of the calculation         |
 *============================================================================*
 |                        Disentanglement            4.04 Mb                  |
 |                            Wannierise:            4.16 Mb                  |
 |                          plot_wannier:            4.16 Mb                  |
 *----------------------------------------------------------------------------*
  
 Starting a new Wannier90 calculation ...


 Reading overlaps from Fe.mmn    :  Created on 22Mar2021 at 13: 4: 2

 Reading projections from Fe.amn :  Created on 22Mar2021 at 13: 4: 0

 Time to read overlaps          0.168 (sec)

 *------------------------------- DISENTANGLE --------------------------------*
 +----------------------------------------------------------------------------+
 |                              Energy  Windows                               |
 |                              ---------------                               |
 |                   Outer:   -8.00000  to   70.00000  (eV)                   |
 |                   Inner:   -8.00000  to   30.00000  (eV)                   |
 +----------------------------------------------------------------------------+
   Number of target bands to extract:   18

                   Unitarised projection of Wannier functions                  
                   ------------------------------------------                  
   A_mn = <psi_m|g_n> --> S = A.A^+ --> U = S^-1/2.A
   In dis_project... done
   Using an inner window (linner = T)
   In dis_proj_froz... done

                   Extraction of optimally-connected subspace                  
                   ------------------------------------------                  
 +---------------------------------------------------------------------+<-- DIS
 |  Iter     Omega_I(i-1)      Omega_I(i)      Delta (frac.)    Time   |<-- DIS
 +---------------------------------------------------------------------+<-- DIS
       1      10.03476528      10.00505517       2.970E-03      0.00    <-- DIS
       2       9.99163048      10.02787945      -3.615E-03      0.01    <-- DIS
       3       9.97503350      10.04454610      -6.920E-03      0.01    <-- DIS
       4       9.94231302      10.03595853      -9.331E-03      0.02    <-- DIS
       5       9.90762352      10.01946106      -1.116E-02      0.03    <-- DIS
       6       9.88220022       9.97340783      -9.145E-03      0.04    <-- DIS
       7       9.86105423       9.91769995      -5.712E-03      0.04    <-- DIS
       8       9.84404469       9.88431601      -4.074E-03      0.05    <-- DIS
       9       9.83332165       9.86297995      -3.007E-03      0.06    <-- DIS
      10       9.82746489       9.85077823      -2.367E-03      0.06    <-- DIS
      11       9.82399882       9.84386442      -2.018E-03      0.07    <-- DIS
      12       9.82175826       9.83923461      -1.776E-03      0.08    <-- DIS
      13       9.82012468       9.83664969      -1.680E-03      0.09    <-- DIS
      14       9.81880852       9.83467126      -1.613E-03      0.09    <-- DIS
      15       9.81767406       9.83376895      -1.637E-03      0.10    <-- DIS
      16       9.81666079       9.83288130      -1.650E-03      0.11    <-- DIS
      17       9.81574296       9.83279829      -1.735E-03      0.11    <-- DIS
      18       9.81490952       9.83234680      -1.773E-03      0.12    <-- DIS
      19       9.81415408       9.83261837      -1.878E-03      0.13    <-- DIS
      20       9.81347084       9.83218595      -1.903E-03      0.13    <-- DIS
      21       9.81285372       9.83242628      -1.991E-03      0.14    <-- DIS
      22       9.81229583       9.83172670      -1.976E-03      0.15    <-- DIS
      23       9.81179125       9.83165361      -2.020E-03      0.16    <-- DIS
      24       9.81133396       9.83057926      -1.958E-03      0.16    <-- DIS
      25       9.81091955       9.83009772      -1.951E-03      0.17    <-- DIS
      26       9.81054327       9.82871913      -1.849E-03      0.18    <-- DIS
      27       9.81020120       9.82790476      -1.801E-03      0.18    <-- DIS
      28       9.80988838       9.82637595      -1.678E-03      0.19    <-- DIS
      29       9.80959975       9.82536563      -1.605E-03      0.21    <-- DIS
      30       9.80932902       9.82381624      -1.475E-03      0.22    <-- DIS
      31       9.80906913       9.82271159      -1.389E-03      0.23    <-- DIS
      32       9.80881160       9.82119884      -1.261E-03      0.25    <-- DIS
      33       9.80854611       9.82003289      -1.170E-03      0.26    <-- DIS
      34       9.80825969       9.81854228      -1.047E-03      0.28    <-- DIS
      35       9.80793555       9.81728079      -9.519E-04      0.29    <-- DIS
      36       9.80755289       9.81573911      -8.340E-04      0.31    <-- DIS
      37       9.80708782       9.81430195      -7.351E-04      0.32    <-- DIS
      38       9.80651834       9.81263313      -6.232E-04      0.34    <-- DIS
      39       9.80583061       9.81100707      -5.276E-04      0.35    <-- DIS
      40       9.80502479       9.80928719      -4.345E-04      0.36    <-- DIS
      41       9.80410360       9.80767731      -3.644E-04      0.38    <-- DIS
      42       9.80304316       9.80611230      -3.130E-04      0.39    <-- DIS
      43       9.80171554       9.80464611      -2.989E-04      0.41    <-- DIS
      44       9.79981846       9.80247432      -2.709E-04      0.42    <-- DIS
      45       9.79674191       9.79889295      -2.195E-04      0.44    <-- DIS
      46       9.79204185       9.79289085      -8.670E-05      0.45    <-- DIS
      47       9.78594830       9.78560378       3.521E-05      0.47    <-- DIS
      48       9.77903868       9.77795352       1.110E-04      0.48    <-- DIS
      49       9.77229349       9.77069931       1.632E-04      0.48    <-- DIS
      50       9.76626774       9.76469405       1.612E-04      0.51    <-- DIS
      51       9.76144653       9.76016815       1.310E-04      0.51    <-- DIS
      52       9.75785529       9.75695643       9.212E-05      0.54    <-- DIS
      53       9.75528005       9.75470077       5.938E-05      0.54    <-- DIS
      54       9.75343429       9.75308695       3.561E-05      0.55    <-- DIS
      55       9.75208062       9.75188059       2.051E-05      0.56    <-- DIS
      56       9.75104234       9.75092238       1.230E-05      0.56    <-- DIS
      57       9.75019874       9.75011110       8.988E-06      0.57    <-- DIS
      58       9.74946850       9.74937801       9.282E-06      0.58    <-- DIS
      59       9.74879677       9.74867984       1.200E-05      0.59    <-- DIS
      60       9.74814536       9.74798410       1.654E-05      0.59    <-- DIS
      61       9.74748719       9.74727020       2.226E-05      0.60    <-- DIS
      62       9.74680272       9.74652188       2.881E-05      0.61    <-- DIS
      63       9.74607876       9.74573117       3.567E-05      0.61    <-- DIS
      64       9.74530791       9.74489429       4.244E-05      0.63    <-- DIS
      65       9.74448902       9.74401552       4.859E-05      0.64    <-- DIS
      66       9.74362709       9.74310340       5.375E-05      0.66    <-- DIS
      67       9.74273268       9.74217212       5.754E-05      0.67    <-- DIS
      68       9.74182010       9.74123670       5.989E-05      0.68    <-- DIS
      69       9.74090506       9.74031275       6.081E-05      0.68    <-- DIS
      70       9.74000238       9.73941270       6.055E-05      0.69    <-- DIS
      71       9.73912423       9.73854645       5.933E-05      0.70    <-- DIS
      72       9.73827956       9.73772001       5.746E-05      0.70    <-- DIS
      73       9.73747405       9.73693700       5.516E-05      0.71    <-- DIS
      74       9.73671074       9.73619853       5.261E-05      0.72    <-- DIS
      75       9.73599068       9.73550454       4.993E-05      0.73    <-- DIS
      76       9.73531361       9.73485386       4.723E-05      0.73    <-- DIS
      77       9.73467846       9.73424495       4.453E-05      0.74    <-- DIS
      78       9.73408372       9.73367592       4.190E-05      0.75    <-- DIS
      79       9.73352765       9.73314487       3.933E-05      0.75    <-- DIS
      80       9.73300842       9.73264981       3.685E-05      0.76    <-- DIS
      81       9.73252419       9.73218884       3.446E-05      0.77    <-- DIS
      82       9.73207314       9.73176006       3.217E-05      0.78    <-- DIS
      83       9.73165348       9.73136165       2.999E-05      0.78    <-- DIS
      84       9.73126344       9.73099182       2.791E-05      0.79    <-- DIS
      85       9.73090132       9.73064885       2.595E-05      0.80    <-- DIS
      86       9.73056544       9.73033104       2.409E-05      0.80    <-- DIS
      87       9.73025417       9.73003677       2.234E-05      0.81    <-- DIS
      88       9.72996592       9.72976447       2.070E-05      0.82    <-- DIS
      89       9.72969915       9.72951262       1.917E-05      0.82    <-- DIS
      90       9.72945240       9.72927975       1.774E-05      0.83    <-- DIS
      91       9.72922422       9.72906449       1.642E-05      0.85    <-- DIS
      92       9.72901326       9.72886549       1.519E-05      0.86    <-- DIS
      93       9.72881822       9.72868151       1.405E-05      0.89    <-- DIS
      94       9.72863786       9.72851136       1.300E-05      0.89    <-- DIS
      95       9.72847101       9.72835390       1.204E-05      0.90    <-- DIS
      96       9.72831659       9.72820810       1.115E-05      0.91    <-- DIS
      97       9.72817356       9.72807297       1.034E-05      0.93    <-- DIS
      98       9.72804095       9.72794760       9.596E-06      0.94    <-- DIS
      99       9.72791788       9.72783113       8.917E-06      0.95    <-- DIS
     100       9.72780351       9.72772279       8.298E-06      0.97    <-- DIS
     101       9.72769708       9.72762186       7.733E-06      0.98    <-- DIS
     102       9.72759788       9.72752766       7.218E-06      1.00    <-- DIS
     103       9.72750525       9.72743959       6.750E-06      1.01    <-- DIS
     104       9.72741862       9.72735710       6.324E-06      1.03    <-- DIS
     105       9.72733743       9.72727969       5.936E-06      1.04    <-- DIS
     106       9.72726120       9.72720689       5.583E-06      1.04    <-- DIS
     107       9.72718949       9.72713831       5.262E-06      1.07    <-- DIS
     108       9.72712189       9.72707357       4.968E-06      1.07    <-- DIS
     109       9.72705805       9.72701234       4.699E-06      1.08    <-- DIS
     110       9.72699765       9.72695434       4.453E-06      1.09    <-- DIS
     111       9.72694039       9.72689929       4.226E-06      1.10    <-- DIS
     112       9.72688604       9.72684697       4.017E-06      1.10    <-- DIS
     113       9.72683437       9.72679718       3.823E-06      1.11    <-- DIS
     114       9.72678518       9.72674974       3.643E-06      1.12    <-- DIS
     115       9.72673830       9.72670450       3.475E-06      1.12    <-- DIS
     116       9.72669357       9.72666131       3.317E-06      1.13    <-- DIS
     117       9.72665088       9.72662005       3.169E-06      1.14    <-- DIS
     118       9.72661009       9.72658063       3.028E-06      1.14    <-- DIS
     119       9.72657110       9.72654295       2.895E-06      1.15    <-- DIS
     120       9.72653384       9.72650692       2.768E-06      1.16    <-- DIS
     121       9.72649821       9.72647246       2.647E-06      1.17    <-- DIS
     122       9.72646414       9.72643952       2.531E-06      1.17    <-- DIS
     123       9.72643156       9.72640802       2.420E-06      1.18    <-- DIS
     124       9.72640040       9.72637790       2.314E-06      1.19    <-- DIS
     125       9.72637062       9.72634910       2.212E-06      1.19    <-- DIS
     126       9.72634214       9.72632156       2.116E-06      1.20    <-- DIS
     127       9.72631490       9.72629522       2.024E-06      1.21    <-- DIS
     128       9.72628885       9.72627001       1.937E-06      1.22    <-- DIS
     129       9.72626391       9.72624587       1.855E-06      1.22    <-- DIS
     130       9.72624003       9.72622274       1.778E-06      1.23    <-- DIS
     131       9.72621713       9.72620053       1.707E-06      1.24    <-- DIS
     132       9.72619513       9.72617916       1.642E-06      1.24    <-- DIS
     133       9.72617397       9.72615856       1.584E-06      1.25    <-- DIS
     134       9.72615354       9.72613863       1.533E-06      1.27    <-- DIS
     135       9.72613376       9.72611927       1.489E-06      1.28    <-- DIS
     136       9.72611452       9.72610038       1.454E-06      1.29    <-- DIS
     137       9.72609573       9.72608184       1.428E-06      1.31    <-- DIS
     138       9.72607725       9.72606353       1.411E-06      1.32    <-- DIS
     139       9.72605897       9.72604531       1.405E-06      1.34    <-- DIS
     140       9.72604074       9.72602702       1.411E-06      1.35    <-- DIS
     141       9.72602242       9.72600852       1.429E-06      1.37    <-- DIS
     142       9.72600383       9.72598962       1.460E-06      1.37    <-- DIS
     143       9.72598479       9.72597014       1.507E-06      1.38    <-- DIS
     144       9.72596512       9.72594986       1.570E-06      1.40    <-- DIS
     145       9.72594461       9.72592856       1.650E-06      1.41    <-- DIS
     146       9.72592301       9.72590601       1.748E-06      1.43    <-- DIS
     147       9.72590009       9.72588194       1.867E-06      1.43    <-- DIS
     148       9.72587559       9.72585608       2.006E-06      1.46    <-- DIS
     149       9.72584924       9.72582816       2.167E-06      1.46    <-- DIS
     150       9.72582075       9.72579788       2.351E-06      1.49    <-- DIS
     151       9.72578982       9.72576495       2.557E-06      1.49    <-- DIS
     152       9.72575618       9.72572909       2.785E-06      1.50    <-- DIS
     153       9.72571953       9.72569002       3.034E-06      1.51    <-- DIS
     154       9.72567962       9.72564752       3.301E-06      1.51    <-- DIS
     155       9.72563621       9.72560137       3.583E-06      1.52    <-- DIS
     156       9.72558912       9.72555143       3.875E-06      1.53    <-- DIS
     157       9.72553823       9.72549765       4.173E-06      1.54    <-- DIS
     158       9.72548348       9.72544002       4.468E-06      1.54    <-- DIS
     159       9.72542492       9.72537868       4.755E-06      1.55    <-- DIS
     160       9.72536268       9.72531382       5.024E-06      1.56    <-- DIS
     161       9.72529700       9.72524577       5.267E-06      1.56    <-- DIS
     162       9.72522823       9.72517496       5.478E-06      1.57    <-- DIS
     163       9.72515681       9.72510187       5.650E-06      1.58    <-- DIS
     164       9.72508327       9.72502709       5.777E-06      1.58    <-- DIS
     165       9.72500818       9.72495122       5.856E-06      1.59    <-- DIS
     166       9.72493216       9.72487491       5.887E-06      1.60    <-- DIS
     167       9.72485585       9.72479877       5.870E-06      1.61    <-- DIS
     168       9.72477986       9.72472338       5.808E-06      1.61    <-- DIS
     169       9.72470476       9.72464928       5.705E-06      1.62    <-- DIS
     170       9.72463107       9.72457693       5.568E-06      1.63    <-- DIS
     171       9.72455924       9.72450672       5.401E-06      1.63    <-- DIS
     172       9.72448962       9.72443895       5.211E-06      1.64    <-- DIS
     173       9.72442250       9.72437384       5.004E-06      1.65    <-- DIS
     174       9.72435808       9.72431153       4.787E-06      1.65    <-- DIS
     175       9.72429650       9.72425213       4.564E-06      1.68    <-- DIS
     176       9.72423782       9.72419564       4.338E-06      1.68    <-- DIS
     177       9.72418206       9.72414205       4.115E-06      1.71    <-- DIS
     178       9.72412919       9.72409131       3.896E-06      1.71    <-- DIS
     179       9.72407915       9.72404334       3.683E-06      1.74    <-- DIS
     180       9.72403185       9.72399803       3.478E-06      1.74    <-- DIS
     181       9.72398719       9.72395528       3.282E-06      1.75    <-- DIS
     182       9.72394505       9.72391496       3.094E-06      1.77    <-- DIS
     183       9.72390532       9.72387696       2.917E-06      1.78    <-- DIS
     184       9.72386787       9.72384115       2.748E-06      1.80    <-- DIS
     185       9.72383259       9.72380742       2.588E-06      1.81    <-- DIS
     186       9.72379937       9.72377566       2.438E-06      1.84    <-- DIS
     187       9.72376807       9.72374576       2.295E-06      1.84    <-- DIS
     188       9.72373862       9.72371761       2.160E-06      1.85    <-- DIS
     189       9.72371089       9.72369112       2.033E-06      1.86    <-- DIS
     190       9.72368480       9.72366620       1.912E-06      1.86    <-- DIS
     191       9.72366025       9.72364276       1.799E-06      1.87    <-- DIS
     192       9.72363717       9.72362073       1.691E-06      1.88    <-- DIS
     193       9.72361547       9.72360001       1.590E-06      1.88    <-- DIS
     194       9.72359507       9.72358055       1.493E-06      1.89    <-- DIS
     195       9.72357590       9.72356227       1.403E-06      1.90    <-- DIS
     196       9.72355791       9.72354510       1.317E-06      1.91    <-- DIS
     197       9.72354101       9.72352899       1.236E-06      1.91    <-- DIS
     198       9.72352515       9.72351388       1.159E-06      1.92    <-- DIS
     199       9.72351028       9.72349971       1.087E-06      1.93    <-- DIS
     200       9.72349633       9.72348642       1.019E-06      1.93    <-- DIS
     201       9.72348326       9.72347397       9.549E-07      1.94    <-- DIS
     202       9.72347101       9.72346231       8.944E-07      1.95    <-- DIS
     203       9.72345954       9.72345140       8.374E-07      1.96    <-- DIS
     204       9.72344880       9.72344118       7.837E-07      1.96    <-- DIS
     205       9.72343875       9.72343162       7.332E-07      1.97    <-- DIS
     206       9.72342935       9.72342268       6.857E-07      1.98    <-- DIS
     207       9.72342056       9.72341433       6.410E-07      1.98    <-- DIS
     208       9.72341234       9.72340651       5.991E-07      1.99    <-- DIS
     209       9.72340466       9.72339922       5.597E-07      2.00    <-- DIS
     210       9.72339748       9.72339240       5.228E-07      2.00    <-- DIS
     211       9.72339078       9.72338604       4.881E-07      2.01    <-- DIS
     212       9.72338453       9.72338010       4.556E-07      2.02    <-- DIS
     213       9.72337869       9.72337455       4.252E-07      2.03    <-- DIS
     214       9.72337324       9.72336938       3.967E-07      2.03    <-- DIS
     215       9.72336815       9.72336455       3.700E-07      2.04    <-- DIS
     216       9.72336341       9.72336005       3.451E-07      2.05    <-- DIS
     217       9.72335899       9.72335586       3.217E-07      2.05    <-- DIS
     218       9.72335486       9.72335195       2.999E-07      2.06    <-- DIS
     219       9.72335102       9.72334830       2.795E-07      2.07    <-- DIS
     220       9.72334744       9.72334490       2.605E-07      2.08    <-- DIS
     221       9.72334410       9.72334174       2.427E-07      2.08    <-- DIS
     222       9.72334099       9.72333879       2.261E-07      2.09    <-- DIS
     223       9.72333809       9.72333604       2.106E-07      2.10    <-- DIS
     224       9.72333539       9.72333349       1.962E-07      2.10    <-- DIS
     225       9.72333288       9.72333110       1.827E-07      2.11    <-- DIS
     226       9.72333054       9.72332888       1.701E-07      2.12    <-- DIS
     227       9.72332836       9.72332682       1.584E-07      2.13    <-- DIS
     228       9.72332633       9.72332490       1.475E-07      2.13    <-- DIS
     229       9.72332444       9.72332311       1.373E-07      2.14    <-- DIS
     230       9.72332268       9.72332144       1.278E-07      2.15    <-- DIS
     231       9.72332104       9.72331989       1.190E-07      2.15    <-- DIS
     232       9.72331952       9.72331844       1.107E-07      2.16    <-- DIS
     233       9.72331810       9.72331710       1.031E-07      2.17    <-- DIS
     234       9.72331678       9.72331585       9.596E-08      2.18    <-- DIS
     235       9.72331555       9.72331468       8.933E-08      2.18    <-- DIS
     236       9.72331441       9.72331360       8.315E-08      2.19    <-- DIS
     237       9.72331334       9.72331259       7.741E-08      2.20    <-- DIS
     238       9.72331235       9.72331165       7.206E-08      2.20    <-- DIS
     239       9.72331142       9.72331077       6.709E-08      2.21    <-- DIS
     240       9.72331057       9.72330996       6.246E-08      2.22    <-- DIS
     241       9.72330976       9.72330920       5.815E-08      2.23    <-- DIS
     242       9.72330902       9.72330849       5.415E-08      2.23    <-- DIS
     243       9.72330833       9.72330784       5.043E-08      2.24    <-- DIS
     244       9.72330768       9.72330722       4.696E-08      2.25    <-- DIS
     245       9.72330708       9.72330665       4.374E-08      2.25    <-- DIS
     246       9.72330652       9.72330612       4.075E-08      2.26    <-- DIS
     247       9.72330599       9.72330563       3.797E-08      2.27    <-- DIS
     248       9.72330551       9.72330516       3.538E-08      2.28    <-- DIS
     249       9.72330506       9.72330473       3.297E-08      2.28    <-- DIS
     250       9.72330463       9.72330433       3.073E-08      2.29    <-- DIS
     251       9.72330424       9.72330396       2.865E-08      2.30    <-- DIS
     252       9.72330387       9.72330361       2.672E-08      2.30    <-- DIS
     253       9.72330353       9.72330329       2.492E-08      2.31    <-- DIS
     254       9.72330321       9.72330298       2.325E-08      2.32    <-- DIS
     255       9.72330291       9.72330270       2.170E-08      2.33    <-- DIS
     256       9.72330263       9.72330244       2.025E-08      2.33    <-- DIS
     257       9.72330237       9.72330219       1.891E-08      2.34    <-- DIS
     258       9.72330213       9.72330196       1.766E-08      2.35    <-- DIS
     259       9.72330190       9.72330174       1.650E-08      2.35    <-- DIS
     260       9.72330169       9.72330154       1.542E-08      2.36    <-- DIS
     261       9.72330150       9.72330136       1.442E-08      2.37    <-- DIS
     262       9.72330131       9.72330118       1.349E-08      2.38    <-- DIS
     263       9.72330114       9.72330102       1.262E-08      2.38    <-- DIS
     264       9.72330098       9.72330086       1.181E-08      2.39    <-- DIS
     265       9.72330082       9.72330072       1.107E-08      2.40    <-- DIS
     266       9.72330068       9.72330058       1.037E-08      2.40    <-- DIS
     267       9.72330055       9.72330045       9.721E-09      2.41    <-- DIS
     268       9.72330042       9.72330034       9.119E-09      2.42    <-- DIS
     269       9.72330031       9.72330022       8.559E-09      2.43    <-- DIS
     270       9.72330020       9.72330012       8.038E-09      2.43    <-- DIS
     271       9.72330009       9.72330002       7.554E-09      2.44    <-- DIS
     272       9.72330000       9.72329993       7.104E-09      2.45    <-- DIS
     273       9.72329991       9.72329984       6.685E-09      2.46    <-- DIS
     274       9.72329982       9.72329976       6.296E-09      2.46    <-- DIS
     275       9.72329974       9.72329968       5.934E-09      2.47    <-- DIS
     276       9.72329966       9.72329961       5.597E-09      2.48    <-- DIS
     277       9.72329959       9.72329954       5.284E-09      2.48    <-- DIS
     278       9.72329952       9.72329948       4.992E-09      2.49    <-- DIS
     279       9.72329946       9.72329941       4.721E-09      2.50    <-- DIS
     280       9.72329940       9.72329936       4.469E-09      2.51    <-- DIS
     281       9.72329934       9.72329930       4.235E-09      2.51    <-- DIS
     282       9.72329929       9.72329925       4.017E-09      2.52    <-- DIS
     283       9.72329924       9.72329920       3.814E-09      2.53    <-- DIS
     284       9.72329919       9.72329915       3.625E-09      2.53    <-- DIS
     285       9.72329914       9.72329911       3.449E-09      2.54    <-- DIS
     286       9.72329910       9.72329906       3.286E-09      2.55    <-- DIS
     287       9.72329905       9.72329902       3.134E-09      2.55    <-- DIS
     288       9.72329901       9.72329898       2.993E-09      2.56    <-- DIS
     289       9.72329897       9.72329895       2.861E-09      2.57    <-- DIS
     290       9.72329894       9.72329891       2.738E-09      2.58    <-- DIS
     291       9.72329890       9.72329888       2.624E-09      2.58    <-- DIS
     292       9.72329887       9.72329884       2.518E-09      2.59    <-- DIS
     293       9.72329884       9.72329881       2.420E-09      2.60    <-- DIS
     294       9.72329881       9.72329878       2.328E-09      2.60    <-- DIS
     295       9.72329878       9.72329875       2.243E-09      2.61    <-- DIS
     296       9.72329875       9.72329873       2.163E-09      2.62    <-- DIS
     297       9.72329872       9.72329870       2.089E-09      2.63    <-- DIS
     298       9.72329869       9.72329867       2.020E-09      2.63    <-- DIS
     299       9.72329867       9.72329865       1.956E-09      2.64    <-- DIS
     300       9.72329864       9.72329862       1.897E-09      2.65    <-- DIS
     301       9.72329862       9.72329860       1.841E-09      2.65    <-- DIS
     302       9.72329859       9.72329857       1.790E-09      2.66    <-- DIS
     303       9.72329857       9.72329855       1.742E-09      2.67    <-- DIS
     304       9.72329855       9.72329853       1.697E-09      2.68    <-- DIS
     305       9.72329852       9.72329851       1.655E-09      2.68    <-- DIS
     306       9.72329850       9.72329849       1.617E-09      2.69    <-- DIS
     307       9.72329848       9.72329847       1.581E-09      2.70    <-- DIS
     308       9.72329846       9.72329845       1.548E-09      2.70    <-- DIS
     309       9.72329844       9.72329843       1.517E-09      2.71    <-- DIS
     310       9.72329842       9.72329841       1.488E-09      2.72    <-- DIS
     311       9.72329840       9.72329839       1.461E-09      2.73    <-- DIS
     312       9.72329838       9.72329837       1.436E-09      2.73    <-- DIS
     313       9.72329837       9.72329835       1.413E-09      2.74    <-- DIS
     314       9.72329835       9.72329833       1.392E-09      2.75    <-- DIS
     315       9.72329833       9.72329832       1.372E-09      2.75    <-- DIS
     316       9.72329831       9.72329830       1.353E-09      2.76    <-- DIS
     317       9.72329829       9.72329828       1.336E-09      2.77    <-- DIS
     318       9.72329828       9.72329826       1.320E-09      2.78    <-- DIS
     319       9.72329826       9.72329825       1.305E-09      2.78    <-- DIS
     320       9.72329824       9.72329823       1.292E-09      2.79    <-- DIS
     321       9.72329823       9.72329821       1.279E-09      2.80    <-- DIS
     322       9.72329821       9.72329820       1.267E-09      2.80    <-- DIS
     323       9.72329819       9.72329818       1.257E-09      2.81    <-- DIS
     324       9.72329818       9.72329816       1.247E-09      2.82    <-- DIS
     325       9.72329816       9.72329815       1.238E-09      2.82    <-- DIS
     326       9.72329814       9.72329813       1.229E-09      2.83    <-- DIS
     327       9.72329813       9.72329812       1.221E-09      2.84    <-- DIS
     328       9.72329811       9.72329810       1.214E-09      2.85    <-- DIS
     329       9.72329810       9.72329809       1.208E-09      2.85    <-- DIS
     330       9.72329808       9.72329807       1.202E-09      2.86    <-- DIS
     331       9.72329807       9.72329805       1.196E-09      2.87    <-- DIS
     332       9.72329805       9.72329804       1.191E-09      2.87    <-- DIS
     333       9.72329804       9.72329802       1.186E-09      2.88    <-- DIS
     334       9.72329802       9.72329801       1.182E-09      2.88    <-- DIS
     335       9.72329800       9.72329799       1.178E-09      2.89    <-- DIS
     336       9.72329799       9.72329798       1.175E-09      2.90    <-- DIS
     337       9.72329797       9.72329796       1.172E-09      2.90    <-- DIS
     338       9.72329796       9.72329795       1.169E-09      2.91    <-- DIS
     339       9.72329794       9.72329793       1.167E-09      2.92    <-- DIS
     340       9.72329793       9.72329792       1.165E-09      2.92    <-- DIS
     341       9.72329791       9.72329790       1.163E-09      2.93    <-- DIS
     342       9.72329790       9.72329789       1.161E-09      2.94    <-- DIS
     343       9.72329788       9.72329787       1.160E-09      2.95    <-- DIS
     344       9.72329787       9.72329786       1.158E-09      2.95    <-- DIS
     345       9.72329785       9.72329784       1.157E-09      2.96    <-- DIS
     346       9.72329784       9.72329783       1.157E-09      2.97    <-- DIS
     347       9.72329782       9.72329781       1.156E-09      2.97    <-- DIS
     348       9.72329781       9.72329780       1.155E-09      2.98    <-- DIS
     349       9.72329779       9.72329778       1.155E-09      2.99    <-- DIS
     350       9.72329778       9.72329777       1.155E-09      3.00    <-- DIS
     351       9.72329776       9.72329775       1.155E-09      3.00    <-- DIS
     352       9.72329775       9.72329774       1.155E-09      3.01    <-- DIS
     353       9.72329773       9.72329772       1.155E-09      3.02    <-- DIS
     354       9.72329772       9.72329771       1.156E-09      3.02    <-- DIS
     355       9.72329770       9.72329769       1.156E-09      3.03    <-- DIS
     356       9.72329769       9.72329768       1.157E-09      3.04    <-- DIS
     357       9.72329767       9.72329766       1.157E-09      3.04    <-- DIS
     358       9.72329766       9.72329765       1.158E-09      3.05    <-- DIS
     359       9.72329764       9.72329763       1.159E-09      3.06    <-- DIS
     360       9.72329763       9.72329762       1.160E-09      3.07    <-- DIS
     361       9.72329761       9.72329760       1.161E-09      3.07    <-- DIS
     362       9.72329760       9.72329759       1.162E-09      3.08    <-- DIS
     363       9.72329758       9.72329757       1.163E-09      3.09    <-- DIS
     364       9.72329757       9.72329756       1.164E-09      3.09    <-- DIS
     365       9.72329755       9.72329754       1.165E-09      3.10    <-- DIS
     366       9.72329754       9.72329753       1.167E-09      3.11    <-- DIS
     367       9.72329752       9.72329751       1.168E-09      3.12    <-- DIS
     368       9.72329751       9.72329750       1.169E-09      3.12    <-- DIS
     369       9.72329749       9.72329748       1.171E-09      3.13    <-- DIS
     370       9.72329748       9.72329747       1.172E-09      3.14    <-- DIS
     371       9.72329746       9.72329745       1.174E-09      3.14    <-- DIS
     372       9.72329745       9.72329744       1.175E-09      3.15    <-- DIS
     373       9.72329743       9.72329742       1.177E-09      3.16    <-- DIS
     374       9.72329742       9.72329740       1.179E-09      3.17    <-- DIS
     375       9.72329740       9.72329739       1.180E-09      3.17    <-- DIS
     376       9.72329739       9.72329737       1.182E-09      3.18    <-- DIS
     377       9.72329737       9.72329736       1.184E-09      3.19    <-- DIS
     378       9.72329736       9.72329734       1.185E-09      3.19    <-- DIS
     379       9.72329734       9.72329733       1.187E-09      3.20    <-- DIS
     380       9.72329732       9.72329731       1.189E-09      3.21    <-- DIS
     381       9.72329731       9.72329730       1.191E-09      3.22    <-- DIS
     382       9.72329729       9.72329728       1.193E-09      3.22    <-- DIS
     383       9.72329728       9.72329727       1.195E-09      3.23    <-- DIS
     384       9.72329726       9.72329725       1.196E-09      3.24    <-- DIS
     385       9.72329725       9.72329724       1.198E-09      3.24    <-- DIS
     386       9.72329723       9.72329722       1.200E-09      3.25    <-- DIS
     387       9.72329722       9.72329720       1.202E-09      3.26    <-- DIS
     388       9.72329720       9.72329719       1.204E-09      3.27    <-- DIS
     389       9.72329718       9.72329717       1.206E-09      3.27    <-- DIS
     390       9.72329717       9.72329716       1.208E-09      3.28    <-- DIS
     391       9.72329715       9.72329714       1.210E-09      3.29    <-- DIS
     392       9.72329714       9.72329713       1.212E-09      3.29    <-- DIS
     393       9.72329712       9.72329711       1.214E-09      3.30    <-- DIS
     394       9.72329711       9.72329709       1.216E-09      3.31    <-- DIS
     395       9.72329709       9.72329708       1.218E-09      3.32    <-- DIS
     396       9.72329707       9.72329706       1.221E-09      3.32    <-- DIS
     397       9.72329706       9.72329705       1.223E-09      3.33    <-- DIS
     398       9.72329704       9.72329703       1.225E-09      3.34    <-- DIS
     399       9.72329703       9.72329702       1.227E-09      3.36    <-- DIS
     400       9.72329701       9.72329700       1.229E-09      3.37    <-- DIS
     401       9.72329700       9.72329698       1.231E-09      3.39    <-- DIS
     402       9.72329698       9.72329697       1.233E-09      3.40    <-- DIS
     403       9.72329696       9.72329695       1.235E-09      3.41    <-- DIS
     404       9.72329695       9.72329694       1.238E-09      3.41    <-- DIS
     405       9.72329693       9.72329692       1.240E-09      3.42    <-- DIS
     406       9.72329692       9.72329690       1.242E-09      3.43    <-- DIS
     407       9.72329690       9.72329689       1.244E-09      3.43    <-- DIS
     408       9.72329688       9.72329687       1.246E-09      3.44    <-- DIS
     409       9.72329687       9.72329685       1.249E-09      3.45    <-- DIS
     410       9.72329685       9.72329684       1.251E-09      3.46    <-- DIS
     411       9.72329683       9.72329682       1.253E-09      3.46    <-- DIS
     412       9.72329682       9.72329681       1.255E-09      3.47    <-- DIS
     413       9.72329680       9.72329679       1.258E-09      3.48    <-- DIS
     414       9.72329679       9.72329677       1.260E-09      3.49    <-- DIS
     415       9.72329677       9.72329676       1.262E-09      3.49    <-- DIS
     416       9.72329675       9.72329674       1.264E-09      3.50    <-- DIS
     417       9.72329674       9.72329672       1.267E-09      3.51    <-- DIS
     418       9.72329672       9.72329671       1.269E-09      3.51    <-- DIS
     419       9.72329670       9.72329669       1.271E-09      3.52    <-- DIS
     420       9.72329669       9.72329667       1.273E-09      3.53    <-- DIS
     421       9.72329667       9.72329666       1.276E-09      3.54    <-- DIS
     422       9.72329665       9.72329664       1.278E-09      3.54    <-- DIS
     423       9.72329664       9.72329662       1.280E-09      3.55    <-- DIS
     424       9.72329662       9.72329661       1.283E-09      3.56    <-- DIS
     425       9.72329660       9.72329659       1.285E-09      3.56    <-- DIS
     426       9.72329659       9.72329657       1.287E-09      3.57    <-- DIS
     427       9.72329657       9.72329656       1.290E-09      3.58    <-- DIS
     428       9.72329655       9.72329654       1.292E-09      3.59    <-- DIS
     429       9.72329654       9.72329652       1.294E-09      3.59    <-- DIS
     430       9.72329652       9.72329651       1.297E-09      3.60    <-- DIS
     431       9.72329650       9.72329649       1.299E-09      3.61    <-- DIS
     432       9.72329649       9.72329647       1.301E-09      3.61    <-- DIS
     433       9.72329647       9.72329646       1.304E-09      3.62    <-- DIS
     434       9.72329645       9.72329644       1.306E-09      3.63    <-- DIS
     435       9.72329644       9.72329642       1.308E-09      3.64    <-- DIS
     436       9.72329642       9.72329641       1.311E-09      3.64    <-- DIS
     437       9.72329640       9.72329639       1.313E-09      3.65    <-- DIS
     438       9.72329639       9.72329637       1.315E-09      3.66    <-- DIS
     439       9.72329637       9.72329636       1.318E-09      3.66    <-- DIS
     440       9.72329635       9.72329634       1.320E-09      3.67    <-- DIS
     441       9.72329633       9.72329632       1.323E-09      3.68    <-- DIS
     442       9.72329632       9.72329630       1.325E-09      3.69    <-- DIS
     443       9.72329630       9.72329629       1.327E-09      3.69    <-- DIS
     444       9.72329628       9.72329627       1.330E-09      3.70    <-- DIS
     445       9.72329627       9.72329625       1.332E-09      3.71    <-- DIS
     446       9.72329625       9.72329623       1.335E-09      3.71    <-- DIS
     447       9.72329623       9.72329622       1.337E-09      3.72    <-- DIS
     448       9.72329621       9.72329620       1.340E-09      3.73    <-- DIS
     449       9.72329620       9.72329618       1.342E-09      3.74    <-- DIS
     450       9.72329618       9.72329617       1.344E-09      3.74    <-- DIS
     451       9.72329616       9.72329615       1.347E-09      3.75    <-- DIS
     452       9.72329614       9.72329613       1.349E-09      3.76    <-- DIS
     453       9.72329613       9.72329611       1.352E-09      3.76    <-- DIS
     454       9.72329611       9.72329610       1.354E-09      3.77    <-- DIS
     455       9.72329609       9.72329608       1.357E-09      3.78    <-- DIS
     456       9.72329607       9.72329606       1.359E-09      3.79    <-- DIS
     457       9.72329606       9.72329604       1.362E-09      3.79    <-- DIS
     458       9.72329604       9.72329602       1.364E-09      3.80    <-- DIS
     459       9.72329602       9.72329601       1.367E-09      3.81    <-- DIS
     460       9.72329600       9.72329599       1.369E-09      3.81    <-- DIS
     461       9.72329598       9.72329597       1.371E-09      3.82    <-- DIS
     462       9.72329597       9.72329595       1.374E-09      3.83    <-- DIS
     463       9.72329595       9.72329594       1.376E-09      3.84    <-- DIS
     464       9.72329593       9.72329592       1.379E-09      3.84    <-- DIS
     465       9.72329591       9.72329590       1.381E-09      3.85    <-- DIS
     466       9.72329590       9.72329588       1.384E-09      3.86    <-- DIS
     467       9.72329588       9.72329586       1.386E-09      3.86    <-- DIS
     468       9.72329586       9.72329585       1.389E-09      3.87    <-- DIS
     469       9.72329584       9.72329583       1.391E-09      3.88    <-- DIS
     470       9.72329582       9.72329581       1.394E-09      3.89    <-- DIS
     471       9.72329581       9.72329579       1.396E-09      3.89    <-- DIS
     472       9.72329579       9.72329577       1.399E-09      3.90    <-- DIS
     473       9.72329577       9.72329576       1.402E-09      3.91    <-- DIS
     474       9.72329575       9.72329574       1.404E-09      3.91    <-- DIS
     475       9.72329573       9.72329572       1.407E-09      3.92    <-- DIS
     476       9.72329571       9.72329570       1.409E-09      3.93    <-- DIS
     477       9.72329570       9.72329568       1.412E-09      3.93    <-- DIS
     478       9.72329568       9.72329566       1.414E-09      3.94    <-- DIS
     479       9.72329566       9.72329565       1.417E-09      3.95    <-- DIS
     480       9.72329564       9.72329563       1.419E-09      3.96    <-- DIS
     481       9.72329562       9.72329561       1.422E-09      3.96    <-- DIS
     482       9.72329560       9.72329559       1.424E-09      3.97    <-- DIS
     483       9.72329559       9.72329557       1.427E-09      3.98    <-- DIS
     484       9.72329557       9.72329555       1.430E-09      3.98    <-- DIS
     485       9.72329555       9.72329554       1.432E-09      3.99    <-- DIS
     486       9.72329553       9.72329552       1.435E-09      4.00    <-- DIS
     487       9.72329551       9.72329550       1.437E-09      4.01    <-- DIS
     488       9.72329549       9.72329548       1.440E-09      4.01    <-- DIS
     489       9.72329547       9.72329546       1.443E-09      4.02    <-- DIS
     490       9.72329546       9.72329544       1.445E-09      4.03    <-- DIS
     491       9.72329544       9.72329542       1.448E-09      4.03    <-- DIS
     492       9.72329542       9.72329540       1.450E-09      4.04    <-- DIS
     493       9.72329540       9.72329539       1.453E-09      4.05    <-- DIS
     494       9.72329538       9.72329537       1.456E-09      4.06    <-- DIS
     495       9.72329536       9.72329535       1.458E-09      4.06    <-- DIS
     496       9.72329534       9.72329533       1.461E-09      4.07    <-- DIS
     497       9.72329532       9.72329531       1.463E-09      4.08    <-- DIS
     498       9.72329530       9.72329529       1.466E-09      4.08    <-- DIS
     499       9.72329529       9.72329527       1.469E-09      4.09    <-- DIS
     500       9.72329527       9.72329525       1.471E-09      4.10    <-- DIS
     501       9.72329525       9.72329523       1.474E-09      4.11    <-- DIS
     502       9.72329523       9.72329521       1.477E-09      4.11    <-- DIS
     503       9.72329521       9.72329520       1.479E-09      4.12    <-- DIS
     504       9.72329519       9.72329518       1.482E-09      4.13    <-- DIS
     505       9.72329517       9.72329516       1.485E-09      4.13    <-- DIS
     506       9.72329515       9.72329514       1.487E-09      4.14    <-- DIS
     507       9.72329513       9.72329512       1.490E-09      4.15    <-- DIS
     508       9.72329511       9.72329510       1.493E-09      4.16    <-- DIS
     509       9.72329509       9.72329508       1.495E-09      4.16    <-- DIS
     510       9.72329507       9.72329506       1.498E-09      4.17    <-- DIS
     511       9.72329506       9.72329504       1.501E-09      4.18    <-- DIS
     512       9.72329504       9.72329502       1.503E-09      4.18    <-- DIS
     513       9.72329502       9.72329500       1.506E-09      4.19    <-- DIS
     514       9.72329500       9.72329498       1.509E-09      4.20    <-- DIS
     515       9.72329498       9.72329496       1.511E-09      4.21    <-- DIS
     516       9.72329496       9.72329494       1.514E-09      4.21    <-- DIS
     517       9.72329494       9.72329492       1.517E-09      4.22    <-- DIS
     518       9.72329492       9.72329490       1.520E-09      4.23    <-- DIS
     519       9.72329490       9.72329488       1.522E-09      4.23    <-- DIS
     520       9.72329488       9.72329486       1.525E-09      4.24    <-- DIS
     521       9.72329486       9.72329484       1.528E-09      4.25    <-- DIS
     522       9.72329484       9.72329482       1.530E-09      4.26    <-- DIS
     523       9.72329482       9.72329480       1.533E-09      4.26    <-- DIS
     524       9.72329480       9.72329478       1.536E-09      4.27    <-- DIS
     525       9.72329478       9.72329476       1.539E-09      4.28    <-- DIS
     526       9.72329476       9.72329474       1.541E-09      4.28    <-- DIS
     527       9.72329474       9.72329472       1.544E-09      4.29    <-- DIS
     528       9.72329472       9.72329470       1.547E-09      4.30    <-- DIS
     529       9.72329470       9.72329468       1.550E-09      4.31    <-- DIS
     530       9.72329468       9.72329466       1.552E-09      4.31    <-- DIS
     531       9.72329466       9.72329464       1.555E-09      4.32    <-- DIS
     532       9.72329464       9.72329462       1.558E-09      4.33    <-- DIS
     533       9.72329462       9.72329460       1.561E-09      4.33    <-- DIS
     534       9.72329460       9.72329458       1.564E-09      4.34    <-- DIS
     535       9.72329458       9.72329456       1.566E-09      4.35    <-- DIS
     536       9.72329456       9.72329454       1.569E-09      4.36    <-- DIS
     537       9.72329454       9.72329452       1.572E-09      4.36    <-- DIS
     538       9.72329452       9.72329450       1.575E-09      4.37    <-- DIS
     539       9.72329450       9.72329448       1.578E-09      4.38    <-- DIS
     540       9.72329448       9.72329446       1.580E-09      4.38    <-- DIS
     541       9.72329446       9.72329444       1.583E-09      4.39    <-- DIS
     542       9.72329444       9.72329442       1.586E-09      4.40    <-- DIS
     543       9.72329441       9.72329440       1.589E-09      4.41    <-- DIS
     544       9.72329439       9.72329438       1.592E-09      4.41    <-- DIS
     545       9.72329437       9.72329436       1.594E-09      4.42    <-- DIS
     546       9.72329435       9.72329434       1.597E-09      4.43    <-- DIS
     547       9.72329433       9.72329432       1.600E-09      4.43    <-- DIS
     548       9.72329431       9.72329430       1.603E-09      4.44    <-- DIS
     549       9.72329429       9.72329428       1.606E-09      4.45    <-- DIS
     550       9.72329427       9.72329425       1.609E-09      4.46    <-- DIS
     551       9.72329425       9.72329423       1.611E-09      4.46    <-- DIS
     552       9.72329423       9.72329421       1.614E-09      4.47    <-- DIS
     553       9.72329421       9.72329419       1.617E-09      4.48    <-- DIS
     554       9.72329419       9.72329417       1.620E-09      4.48    <-- DIS
     555       9.72329417       9.72329415       1.623E-09      4.49    <-- DIS
     556       9.72329414       9.72329413       1.626E-09      4.50    <-- DIS
     557       9.72329412       9.72329411       1.629E-09      4.51    <-- DIS
     558       9.72329410       9.72329409       1.632E-09      4.51    <-- DIS
     559       9.72329408       9.72329406       1.634E-09      4.52    <-- DIS
     560       9.72329406       9.72329404       1.637E-09      4.53    <-- DIS
     561       9.72329404       9.72329402       1.640E-09      4.53    <-- DIS
     562       9.72329402       9.72329400       1.643E-09      4.54    <-- DIS
     563       9.72329400       9.72329398       1.646E-09      4.55    <-- DIS
     564       9.72329397       9.72329396       1.649E-09      4.56    <-- DIS
     565       9.72329395       9.72329394       1.652E-09      4.56    <-- DIS
     566       9.72329393       9.72329392       1.655E-09      4.57    <-- DIS
     567       9.72329391       9.72329389       1.658E-09      4.58    <-- DIS
     568       9.72329389       9.72329387       1.661E-09      4.58    <-- DIS
     569       9.72329387       9.72329385       1.663E-09      4.59    <-- DIS
     570       9.72329385       9.72329383       1.666E-09      4.60    <-- DIS
     571       9.72329382       9.72329381       1.669E-09      4.61    <-- DIS
     572       9.72329380       9.72329379       1.672E-09      4.61    <-- DIS
     573       9.72329378       9.72329376       1.675E-09      4.62    <-- DIS
     574       9.72329376       9.72329374       1.678E-09      4.63    <-- DIS
     575       9.72329374       9.72329372       1.681E-09      4.63    <-- DIS
     576       9.72329372       9.72329370       1.684E-09      4.64    <-- DIS
     577       9.72329369       9.72329368       1.687E-09      4.65    <-- DIS
     578       9.72329367       9.72329366       1.690E-09      4.66    <-- DIS
     579       9.72329365       9.72329363       1.693E-09      4.66    <-- DIS
     580       9.72329363       9.72329361       1.696E-09      4.67    <-- DIS
     581       9.72329361       9.72329359       1.699E-09      4.68    <-- DIS
     582       9.72329358       9.72329357       1.702E-09      4.68    <-- DIS
     583       9.72329356       9.72329355       1.705E-09      4.69    <-- DIS
     584       9.72329354       9.72329352       1.708E-09      4.70    <-- DIS
     585       9.72329352       9.72329350       1.711E-09      4.71    <-- DIS
     586       9.72329350       9.72329348       1.714E-09      4.71    <-- DIS
     587       9.72329347       9.72329346       1.717E-09      4.72    <-- DIS
     588       9.72329345       9.72329343       1.720E-09      4.73    <-- DIS
     589       9.72329343       9.72329341       1.723E-09      4.73    <-- DIS
     590       9.72329341       9.72329339       1.726E-09      4.74    <-- DIS
     591       9.72329338       9.72329337       1.729E-09      4.75    <-- DIS
     592       9.72329336       9.72329334       1.732E-09      4.76    <-- DIS
     593       9.72329334       9.72329332       1.735E-09      4.76    <-- DIS
     594       9.72329332       9.72329330       1.738E-09      4.77    <-- DIS
     595       9.72329329       9.72329328       1.741E-09      4.78    <-- DIS
     596       9.72329327       9.72329325       1.744E-09      4.78    <-- DIS
     597       9.72329325       9.72329323       1.747E-09      4.79    <-- DIS
     598       9.72329323       9.72329321       1.750E-09      4.80    <-- DIS
     599       9.72329320       9.72329319       1.753E-09      4.80    <-- DIS
     600       9.72329318       9.72329316       1.756E-09      4.81    <-- DIS
     601       9.72329316       9.72329314       1.759E-09      4.82    <-- DIS
     602       9.72329313       9.72329312       1.762E-09      4.83    <-- DIS
     603       9.72329311       9.72329309       1.766E-09      4.83    <-- DIS
     604       9.72329309       9.72329307       1.769E-09      4.84    <-- DIS
     605       9.72329307       9.72329305       1.772E-09      4.85    <-- DIS
     606       9.72329304       9.72329303       1.775E-09      4.85    <-- DIS
     607       9.72329302       9.72329300       1.778E-09      4.86    <-- DIS
     608       9.72329300       9.72329298       1.781E-09      4.87    <-- DIS
     609       9.72329297       9.72329296       1.784E-09      4.88    <-- DIS
     610       9.72329295       9.72329293       1.787E-09      4.88    <-- DIS
     611       9.72329293       9.72329291       1.790E-09      4.89    <-- DIS
     612       9.72329290       9.72329289       1.793E-09      4.90    <-- DIS
     613       9.72329288       9.72329286       1.796E-09      4.90    <-- DIS
     614       9.72329286       9.72329284       1.800E-09      4.91    <-- DIS
     615       9.72329283       9.72329282       1.803E-09      4.92    <-- DIS
     616       9.72329281       9.72329279       1.806E-09      4.93    <-- DIS
     617       9.72329279       9.72329277       1.809E-09      4.93    <-- DIS
     618       9.72329276       9.72329275       1.812E-09      4.94    <-- DIS
     619       9.72329274       9.72329272       1.815E-09      4.95    <-- DIS
     620       9.72329272       9.72329270       1.818E-09      4.95    <-- DIS
     621       9.72329269       9.72329268       1.822E-09      4.96    <-- DIS
     622       9.72329267       9.72329265       1.825E-09      4.97    <-- DIS
     623       9.72329265       9.72329263       1.828E-09      4.98    <-- DIS
     624       9.72329262       9.72329260       1.831E-09      4.98    <-- DIS
     625       9.72329260       9.72329258       1.834E-09      4.99    <-- DIS
     626       9.72329258       9.72329256       1.837E-09      5.00    <-- DIS
     627       9.72329255       9.72329253       1.841E-09      5.00    <-- DIS
     628       9.72329253       9.72329251       1.844E-09      5.01    <-- DIS
     629       9.72329250       9.72329249       1.847E-09      5.02    <-- DIS
     630       9.72329248       9.72329246       1.850E-09      5.03    <-- DIS
     631       9.72329246       9.72329244       1.853E-09      5.03    <-- DIS
     632       9.72329243       9.72329241       1.856E-09      5.04    <-- DIS
     633       9.72329241       9.72329239       1.860E-09      5.05    <-- DIS
     634       9.72329238       9.72329237       1.863E-09      5.05    <-- DIS
     635       9.72329236       9.72329234       1.866E-09      5.06    <-- DIS
     636       9.72329234       9.72329232       1.869E-09      5.07    <-- DIS
     637       9.72329231       9.72329229       1.873E-09      5.08    <-- DIS
     638       9.72329229       9.72329227       1.876E-09      5.08    <-- DIS
     639       9.72329226       9.72329224       1.879E-09      5.09    <-- DIS
     640       9.72329224       9.72329222       1.882E-09      5.10    <-- DIS
     641       9.72329221       9.72329220       1.885E-09      5.10    <-- DIS
     642       9.72329219       9.72329217       1.889E-09      5.11    <-- DIS
     643       9.72329216       9.72329215       1.892E-09      5.12    <-- DIS
     644       9.72329214       9.72329212       1.895E-09      5.13    <-- DIS
     645       9.72329212       9.72329210       1.898E-09      5.13    <-- DIS
     646       9.72329209       9.72329207       1.902E-09      5.14    <-- DIS
     647       9.72329207       9.72329205       1.905E-09      5.15    <-- DIS
     648       9.72329204       9.72329202       1.908E-09      5.15    <-- DIS
     649       9.72329202       9.72329200       1.912E-09      5.16    <-- DIS
     650       9.72329199       9.72329197       1.915E-09      5.17    <-- DIS
     651       9.72329197       9.72329195       1.918E-09      5.18    <-- DIS
     652       9.72329194       9.72329192       1.921E-09      5.18    <-- DIS
     653       9.72329192       9.72329190       1.925E-09      5.19    <-- DIS
     654       9.72329189       9.72329187       1.928E-09      5.20    <-- DIS
     655       9.72329187       9.72329185       1.931E-09      5.20    <-- DIS
     656       9.72329184       9.72329182       1.935E-09      5.21    <-- DIS
     657       9.72329182       9.72329180       1.938E-09      5.22    <-- DIS
     658       9.72329179       9.72329177       1.941E-09      5.23    <-- DIS
     659       9.72329177       9.72329175       1.944E-09      5.23    <-- DIS
     660       9.72329174       9.72329172       1.948E-09      5.24    <-- DIS
     661       9.72329172       9.72329170       1.951E-09      5.25    <-- DIS
     662       9.72329169       9.72329167       1.954E-09      5.25    <-- DIS
     663       9.72329167       9.72329165       1.958E-09      5.26    <-- DIS
     664       9.72329164       9.72329162       1.961E-09      5.27    <-- DIS
     665       9.72329161       9.72329160       1.964E-09      5.28    <-- DIS
     666       9.72329159       9.72329157       1.968E-09      5.28    <-- DIS
     667       9.72329156       9.72329154       1.971E-09      5.29    <-- DIS
     668       9.72329154       9.72329152       1.975E-09      5.30    <-- DIS
     669       9.72329151       9.72329149       1.978E-09      5.30    <-- DIS
     670       9.72329149       9.72329147       1.981E-09      5.31    <-- DIS
     671       9.72329146       9.72329144       1.985E-09      5.32    <-- DIS
     672       9.72329144       9.72329142       1.988E-09      5.33    <-- DIS
     673       9.72329141       9.72329139       1.991E-09      5.33    <-- DIS
     674       9.72329138       9.72329136       1.995E-09      5.34    <-- DIS
     675       9.72329136       9.72329134       1.998E-09      5.35    <-- DIS
     676       9.72329133       9.72329131       2.002E-09      5.35    <-- DIS
     677       9.72329131       9.72329129       2.005E-09      5.36    <-- DIS
     678       9.72329128       9.72329126       2.008E-09      5.37    <-- DIS
     679       9.72329125       9.72329123       2.012E-09      5.38    <-- DIS
     680       9.72329123       9.72329121       2.015E-09      5.38    <-- DIS
     681       9.72329120       9.72329118       2.019E-09      5.39    <-- DIS
     682       9.72329118       9.72329116       2.022E-09      5.40    <-- DIS
     683       9.72329115       9.72329113       2.025E-09      5.40    <-- DIS
     684       9.72329112       9.72329110       2.029E-09      5.41    <-- DIS
     685       9.72329110       9.72329108       2.032E-09      5.42    <-- DIS
     686       9.72329107       9.72329105       2.036E-09      5.43    <-- DIS
     687       9.72329104       9.72329102       2.039E-09      5.43    <-- DIS
     688       9.72329102       9.72329100       2.043E-09      5.44    <-- DIS
     689       9.72329099       9.72329097       2.046E-09      5.45    <-- DIS
     690       9.72329096       9.72329094       2.049E-09      5.45    <-- DIS
     691       9.72329094       9.72329092       2.053E-09      5.46    <-- DIS
     692       9.72329091       9.72329089       2.056E-09      5.47    <-- DIS
     693       9.72329088       9.72329086       2.060E-09      5.47    <-- DIS
     694       9.72329086       9.72329084       2.063E-09      5.48    <-- DIS
     695       9.72329083       9.72329081       2.067E-09      5.49    <-- DIS
     696       9.72329080       9.72329078       2.070E-09      5.50    <-- DIS
     697       9.72329078       9.72329076       2.074E-09      5.50    <-- DIS
     698       9.72329075       9.72329073       2.077E-09      5.51    <-- DIS
     699       9.72329072       9.72329070       2.081E-09      5.52    <-- DIS
     700       9.72329070       9.72329068       2.084E-09      5.52    <-- DIS
     701       9.72329067       9.72329065       2.088E-09      5.53    <-- DIS
     702       9.72329064       9.72329062       2.091E-09      5.54    <-- DIS
     703       9.72329062       9.72329060       2.095E-09      5.55    <-- DIS
     704       9.72329059       9.72329057       2.098E-09      5.55    <-- DIS
     705       9.72329056       9.72329054       2.102E-09      5.56    <-- DIS
     706       9.72329053       9.72329051       2.105E-09      5.57    <-- DIS
     707       9.72329051       9.72329049       2.109E-09      5.57    <-- DIS
     708       9.72329048       9.72329046       2.112E-09      5.58    <-- DIS
     709       9.72329045       9.72329043       2.116E-09      5.59    <-- DIS
     710       9.72329042       9.72329040       2.119E-09      5.60    <-- DIS
     711       9.72329040       9.72329038       2.123E-09      5.60    <-- DIS
     712       9.72329037       9.72329035       2.127E-09      5.61    <-- DIS
     713       9.72329034       9.72329032       2.130E-09      5.62    <-- DIS
     714       9.72329031       9.72329029       2.134E-09      5.62    <-- DIS
     715       9.72329029       9.72329027       2.137E-09      5.63    <-- DIS
     716       9.72329026       9.72329024       2.141E-09      5.64    <-- DIS
     717       9.72329023       9.72329021       2.144E-09      5.65    <-- DIS
     718       9.72329020       9.72329018       2.148E-09      5.65    <-- DIS
     719       9.72329018       9.72329015       2.152E-09      5.66    <-- DIS
     720       9.72329015       9.72329013       2.155E-09      5.67    <-- DIS
     721       9.72329012       9.72329010       2.159E-09      5.67    <-- DIS
     722       9.72329009       9.72329007       2.162E-09      5.68    <-- DIS
     723       9.72329006       9.72329004       2.166E-09      5.69    <-- DIS
     724       9.72329004       9.72329001       2.170E-09      5.70    <-- DIS
     725       9.72329001       9.72328999       2.173E-09      5.70    <-- DIS
     726       9.72328998       9.72328996       2.177E-09      5.71    <-- DIS
     727       9.72328995       9.72328993       2.180E-09      5.72    <-- DIS
     728       9.72328992       9.72328990       2.184E-09      5.72    <-- DIS
     729       9.72328989       9.72328987       2.188E-09      5.73    <-- DIS
     730       9.72328987       9.72328984       2.191E-09      5.74    <-- DIS
     731       9.72328984       9.72328982       2.195E-09      5.76    <-- DIS
     732       9.72328981       9.72328979       2.198E-09      5.77    <-- DIS
     733       9.72328978       9.72328976       2.202E-09      5.79    <-- DIS
     734       9.72328975       9.72328973       2.206E-09      5.80    <-- DIS
     735       9.72328972       9.72328970       2.209E-09      5.80    <-- DIS
     736       9.72328969       9.72328967       2.213E-09      5.81    <-- DIS
     737       9.72328967       9.72328964       2.217E-09      5.82    <-- DIS
     738       9.72328964       9.72328962       2.220E-09      5.83    <-- DIS
     739       9.72328961       9.72328959       2.224E-09      5.83    <-- DIS
     740       9.72328958       9.72328956       2.228E-09      5.84    <-- DIS
     741       9.72328955       9.72328953       2.231E-09      5.85    <-- DIS
     742       9.72328952       9.72328950       2.235E-09      5.86    <-- DIS
     743       9.72328949       9.72328947       2.239E-09      5.86    <-- DIS
     744       9.72328946       9.72328944       2.242E-09      5.87    <-- DIS
     745       9.72328943       9.72328941       2.246E-09      5.88    <-- DIS
     746       9.72328941       9.72328938       2.250E-09      5.88    <-- DIS
     747       9.72328938       9.72328935       2.254E-09      5.89    <-- DIS
     748       9.72328935       9.72328933       2.257E-09      5.90    <-- DIS
     749       9.72328932       9.72328930       2.261E-09      5.90    <-- DIS
     750       9.72328929       9.72328927       2.265E-09      5.91    <-- DIS
     751       9.72328926       9.72328924       2.268E-09      5.92    <-- DIS
     752       9.72328923       9.72328921       2.272E-09      5.93    <-- DIS
     753       9.72328920       9.72328918       2.276E-09      5.95    <-- DIS
     754       9.72328917       9.72328915       2.280E-09      5.96    <-- DIS
     755       9.72328914       9.72328912       2.283E-09      5.98    <-- DIS
     756       9.72328911       9.72328909       2.287E-09      5.98    <-- DIS
     757       9.72328908       9.72328906       2.291E-09      5.99    <-- DIS
     758       9.72328905       9.72328903       2.295E-09      6.00    <-- DIS
     759       9.72328902       9.72328900       2.298E-09      6.00    <-- DIS
     760       9.72328899       9.72328897       2.302E-09      6.01    <-- DIS
     761       9.72328896       9.72328894       2.306E-09      6.02    <-- DIS
     762       9.72328893       9.72328891       2.310E-09      6.03    <-- DIS
     763       9.72328890       9.72328888       2.313E-09      6.03    <-- DIS
     764       9.72328887       9.72328885       2.317E-09      6.04    <-- DIS
     765       9.72328884       9.72328882       2.321E-09      6.05    <-- DIS
     766       9.72328881       9.72328879       2.325E-09      6.05    <-- DIS
     767       9.72328878       9.72328876       2.329E-09      6.06    <-- DIS
     768       9.72328875       9.72328873       2.332E-09      6.07    <-- DIS
     769       9.72328872       9.72328870       2.336E-09      6.08    <-- DIS
     770       9.72328869       9.72328867       2.340E-09      6.08    <-- DIS
     771       9.72328866       9.72328864       2.344E-09      6.09    <-- DIS
     772       9.72328863       9.72328861       2.348E-09      6.10    <-- DIS
     773       9.72328860       9.72328858       2.351E-09      6.10    <-- DIS
     774       9.72328857       9.72328855       2.355E-09      6.11    <-- DIS
     775       9.72328854       9.72328852       2.359E-09      6.12    <-- DIS
     776       9.72328851       9.72328849       2.363E-09      6.12    <-- DIS
     777       9.72328848       9.72328846       2.367E-09      6.13    <-- DIS
     778       9.72328845       9.72328843       2.371E-09      6.14    <-- DIS
     779       9.72328842       9.72328839       2.374E-09      6.15    <-- DIS
     780       9.72328839       9.72328836       2.378E-09      6.15    <-- DIS
     781       9.72328836       9.72328833       2.382E-09      6.16    <-- DIS
     782       9.72328832       9.72328830       2.386E-09      6.17    <-- DIS
     783       9.72328829       9.72328827       2.390E-09      6.17    <-- DIS
     784       9.72328826       9.72328824       2.394E-09      6.18    <-- DIS
     785       9.72328823       9.72328821       2.398E-09      6.19    <-- DIS
[...]
    1820       9.72322692       9.72322686       5.956E-09     13.58    <-- DIS
    1821       9.72322684       9.72322678       5.955E-09     13.59    <-- DIS
    1822       9.72322677       9.72322671       5.954E-09     13.60    <-- DIS
    1823       9.72322669       9.72322663       5.953E-09     13.60    <-- DIS
    1824       9.72322661       9.72322655       5.953E-09     13.61    <-- DIS
    1825       9.72322653       9.72322648       5.952E-09     13.62    <-- DIS
    1826       9.72322646       9.72322640       5.951E-09     13.62    <-- DIS
    1827       9.72322638       9.72322632       5.950E-09     13.63    <-- DIS
    1828       9.72322630       9.72322624       5.949E-09     13.64    <-- DIS
    1829       9.72322623       9.72322617       5.948E-09     13.65    <-- DIS
    1830       9.72322615       9.72322609       5.947E-09     13.65    <-- DIS
    1831       9.72322607       9.72322601       5.946E-09     13.66    <-- DIS
    1832       9.72322599       9.72322594       5.945E-09     13.67    <-- DIS
    1833       9.72322592       9.72322586       5.944E-09     13.67    <-- DIS
    1834       9.72322584       9.72322578       5.943E-09     13.68    <-- DIS
    1835       9.72322576       9.72322571       5.942E-09     13.69    <-- DIS
    1836       9.72322569       9.72322563       5.941E-09     13.70    <-- DIS
    1837       9.72322561       9.72322555       5.940E-09     13.70    <-- DIS
    1838       9.72322553       9.72322547       5.939E-09     13.71    <-- DIS
    1839       9.72322545       9.72322540       5.938E-09     13.72    <-- DIS
    1840       9.72322538       9.72322532       5.937E-09     13.72    <-- DIS
    1841       9.72322530       9.72322524       5.936E-09     13.73    <-- DIS
    1842       9.72322522       9.72322517       5.935E-09     13.74    <-- DIS
    1843       9.72322515       9.72322509       5.934E-09     13.75    <-- DIS
    1844       9.72322507       9.72322501       5.933E-09     13.75    <-- DIS
    1845       9.72322499       9.72322494       5.932E-09     13.76    <-- DIS
    1846       9.72322492       9.72322486       5.931E-09     13.77    <-- DIS
    1847       9.72322484       9.72322478       5.930E-09     13.77    <-- DIS
    1848       9.72322476       9.72322470       5.928E-09     13.78    <-- DIS
    1849       9.72322469       9.72322463       5.927E-09     13.79    <-- DIS
    1850       9.72322461       9.72322455       5.926E-09     13.80    <-- DIS
    1851       9.72322453       9.72322447       5.925E-09     13.80    <-- DIS
    1852       9.72322446       9.72322440       5.924E-09     13.81    <-- DIS
    1853       9.72322438       9.72322432       5.923E-09     13.82    <-- DIS
    1854       9.72322430       9.72322424       5.921E-09     13.82    <-- DIS
    1855       9.72322422       9.72322417       5.920E-09     13.83    <-- DIS
    1856       9.72322415       9.72322409       5.919E-09     13.84    <-- DIS
    1857       9.72322407       9.72322401       5.918E-09     13.85    <-- DIS
    1858       9.72322399       9.72322394       5.916E-09     13.85    <-- DIS
    1859       9.72322392       9.72322386       5.915E-09     13.86    <-- DIS
    1860       9.72322384       9.72322378       5.914E-09     13.87    <-- DIS
    1861       9.72322376       9.72322371       5.912E-09     13.87    <-- DIS
    1862       9.72322369       9.72322363       5.911E-09     13.88    <-- DIS
    1863       9.72322361       9.72322355       5.910E-09     13.89    <-- DIS
    1864       9.72322353       9.72322348       5.908E-09     13.90    <-- DIS
    1865       9.72322346       9.72322340       5.907E-09     13.90    <-- DIS
    1866       9.72322338       9.72322332       5.906E-09     13.91    <-- DIS
    1867       9.72322331       9.72322325       5.904E-09     13.92    <-- DIS
    1868       9.72322323       9.72322317       5.903E-09     13.92    <-- DIS
    1869       9.72322315       9.72322309       5.901E-09     13.93    <-- DIS
    1870       9.72322308       9.72322302       5.900E-09     13.94    <-- DIS
    1871       9.72322300       9.72322294       5.898E-09     13.94    <-- DIS
    1872       9.72322292       9.72322287       5.897E-09     13.95    <-- DIS
    1873       9.72322285       9.72322279       5.895E-09     13.96    <-- DIS
    1874       9.72322277       9.72322271       5.894E-09     13.97    <-- DIS
    1875       9.72322269       9.72322264       5.892E-09     13.97    <-- DIS
    1876       9.72322262       9.72322256       5.891E-09     13.98    <-- DIS
    1877       9.72322254       9.72322248       5.889E-09     13.99    <-- DIS
    1878       9.72322246       9.72322241       5.888E-09     13.99    <-- DIS
    1879       9.72322239       9.72322233       5.886E-09     14.00    <-- DIS
    1880       9.72322231       9.72322225       5.885E-09     14.01    <-- DIS
    1881       9.72322224       9.72322218       5.883E-09     14.02    <-- DIS
    1882       9.72322216       9.72322210       5.882E-09     14.02    <-- DIS
    1883       9.72322208       9.72322203       5.880E-09     14.03    <-- DIS
    1884       9.72322201       9.72322195       5.878E-09     14.04    <-- DIS
    1885       9.72322193       9.72322187       5.877E-09     14.04    <-- DIS
    1886       9.72322185       9.72322180       5.875E-09     14.05    <-- DIS
    1887       9.72322178       9.72322172       5.873E-09     14.06    <-- DIS
    1888       9.72322170       9.72322164       5.872E-09     14.07    <-- DIS
    1889       9.72322163       9.72322157       5.870E-09     14.07    <-- DIS
    1890       9.72322155       9.72322149       5.868E-09     14.08    <-- DIS
    1891       9.72322147       9.72322142       5.867E-09     14.09    <-- DIS
    1892       9.72322140       9.72322134       5.865E-09     14.09    <-- DIS
    1893       9.72322132       9.72322126       5.863E-09     14.10    <-- DIS
    1894       9.72322125       9.72322119       5.862E-09     14.11    <-- DIS
    1895       9.72322117       9.72322111       5.860E-09     14.12    <-- DIS
    1896       9.72322109       9.72322104       5.858E-09     14.12    <-- DIS
    1897       9.72322102       9.72322096       5.856E-09     14.13    <-- DIS
    1898       9.72322094       9.72322088       5.854E-09     14.14    <-- DIS
    1899       9.72322087       9.72322081       5.853E-09     14.14    <-- DIS
    1900       9.72322079       9.72322073       5.851E-09     14.15    <-- DIS
    1901       9.72322071       9.72322066       5.849E-09     14.16    <-- DIS
    1902       9.72322064       9.72322058       5.847E-09     14.17    <-- DIS
    1903       9.72322056       9.72322051       5.845E-09     14.17    <-- DIS
    1904       9.72322049       9.72322043       5.843E-09     14.18    <-- DIS
    1905       9.72322041       9.72322035       5.842E-09     14.19    <-- DIS
    1906       9.72322034       9.72322028       5.840E-09     14.19    <-- DIS
    1907       9.72322026       9.72322020       5.838E-09     14.20    <-- DIS
    1908       9.72322018       9.72322013       5.836E-09     14.21    <-- DIS
    1909       9.72322011       9.72322005       5.834E-09     14.22    <-- DIS
    1910       9.72322003       9.72321998       5.832E-09     14.22    <-- DIS
    1911       9.72321996       9.72321990       5.830E-09     14.23    <-- DIS
    1912       9.72321988       9.72321982       5.828E-09     14.24    <-- DIS
    1913       9.72321981       9.72321975       5.826E-09     14.24    <-- DIS
    1914       9.72321973       9.72321967       5.824E-09     14.25    <-- DIS
    1915       9.72321965       9.72321960       5.822E-09     14.26    <-- DIS
    1916       9.72321958       9.72321952       5.820E-09     14.27    <-- DIS
    1917       9.72321950       9.72321945       5.818E-09     14.27    <-- DIS
    1918       9.72321943       9.72321937       5.816E-09     14.28    <-- DIS
    1919       9.72321935       9.72321930       5.814E-09     14.29    <-- DIS
    1920       9.72321928       9.72321922       5.812E-09     14.29    <-- DIS
    1921       9.72321920       9.72321915       5.810E-09     14.30    <-- DIS
    1922       9.72321913       9.72321907       5.808E-09     14.31    <-- DIS
    1923       9.72321905       9.72321900       5.806E-09     14.31    <-- DIS
    1924       9.72321898       9.72321892       5.804E-09     14.32    <-- DIS
    1925       9.72321890       9.72321884       5.802E-09     14.33    <-- DIS
    1926       9.72321883       9.72321877       5.799E-09     14.34    <-- DIS
    1927       9.72321875       9.72321869       5.797E-09     14.34    <-- DIS
    1928       9.72321868       9.72321862       5.795E-09     14.35    <-- DIS
    1929       9.72321860       9.72321854       5.793E-09     14.36    <-- DIS
    1930       9.72321853       9.72321847       5.791E-09     14.36    <-- DIS
    1931       9.72321845       9.72321839       5.789E-09     14.37    <-- DIS
    1932       9.72321838       9.72321832       5.786E-09     14.38    <-- DIS
    1933       9.72321830       9.72321824       5.784E-09     14.39    <-- DIS
    1934       9.72321823       9.72321817       5.782E-09     14.39    <-- DIS
    1935       9.72321815       9.72321809       5.780E-09     14.40    <-- DIS
    1936       9.72321808       9.72321802       5.778E-09     14.41    <-- DIS
    1937       9.72321800       9.72321794       5.775E-09     14.41    <-- DIS
    1938       9.72321793       9.72321787       5.773E-09     14.42    <-- DIS
    1939       9.72321785       9.72321779       5.771E-09     14.43    <-- DIS
    1940       9.72321778       9.72321772       5.768E-09     14.44    <-- DIS
    1941       9.72321770       9.72321765       5.766E-09     14.44    <-- DIS
    1942       9.72321763       9.72321757       5.764E-09     14.45    <-- DIS
    1943       9.72321755       9.72321750       5.761E-09     14.46    <-- DIS
    1944       9.72321748       9.72321742       5.759E-09     14.46    <-- DIS
    1945       9.72321740       9.72321735       5.757E-09     14.47    <-- DIS
    1946       9.72321733       9.72321727       5.754E-09     14.48    <-- DIS
    1947       9.72321725       9.72321720       5.752E-09     14.49    <-- DIS
    1948       9.72321718       9.72321712       5.750E-09     14.49    <-- DIS
    1949       9.72321710       9.72321705       5.747E-09     14.50    <-- DIS
    1950       9.72321703       9.72321697       5.745E-09     14.51    <-- DIS
    1951       9.72321696       9.72321690       5.742E-09     14.51    <-- DIS
    1952       9.72321688       9.72321682       5.740E-09     14.52    <-- DIS
    1953       9.72321681       9.72321675       5.738E-09     14.53    <-- DIS
    1954       9.72321673       9.72321668       5.735E-09     14.54    <-- DIS
    1955       9.72321666       9.72321660       5.733E-09     14.54    <-- DIS
    1956       9.72321658       9.72321653       5.730E-09     14.55    <-- DIS
    1957       9.72321651       9.72321645       5.728E-09     14.56    <-- DIS
    1958       9.72321643       9.72321638       5.725E-09     14.56    <-- DIS
    1959       9.72321636       9.72321630       5.723E-09     14.57    <-- DIS
    1960       9.72321629       9.72321623       5.720E-09     14.58    <-- DIS
    1961       9.72321621       9.72321616       5.718E-09     14.59    <-- DIS
    1962       9.72321614       9.72321608       5.715E-09     14.59    <-- DIS
    1963       9.72321606       9.72321601       5.713E-09     14.60    <-- DIS
    1964       9.72321599       9.72321593       5.710E-09     14.61    <-- DIS
    1965       9.72321592       9.72321586       5.707E-09     14.61    <-- DIS
    1966       9.72321584       9.72321579       5.705E-09     14.62    <-- DIS
    1967       9.72321577       9.72321571       5.702E-09     14.63    <-- DIS
    1968       9.72321569       9.72321564       5.700E-09     14.64    <-- DIS
    1969       9.72321562       9.72321556       5.697E-09     14.64    <-- DIS
    1970       9.72321555       9.72321549       5.694E-09     14.65    <-- DIS
    1971       9.72321547       9.72321542       5.692E-09     14.66    <-- DIS
    1972       9.72321540       9.72321534       5.689E-09     14.66    <-- DIS
    1973       9.72321532       9.72321527       5.686E-09     14.67    <-- DIS
    1974       9.72321525       9.72321520       5.684E-09     14.68    <-- DIS
    1975       9.72321518       9.72321512       5.681E-09     14.69    <-- DIS
    1976       9.72321510       9.72321505       5.678E-09     14.69    <-- DIS
    1977       9.72321503       9.72321497       5.676E-09     14.70    <-- DIS
    1978       9.72321496       9.72321490       5.673E-09     14.71    <-- DIS
    1979       9.72321488       9.72321483       5.670E-09     14.71    <-- DIS
    1980       9.72321481       9.72321475       5.668E-09     14.72    <-- DIS
    1981       9.72321474       9.72321468       5.665E-09     14.73    <-- DIS
    1982       9.72321466       9.72321461       5.662E-09     14.74    <-- DIS
    1983       9.72321459       9.72321453       5.659E-09     14.74    <-- DIS
    1984       9.72321452       9.72321446       5.656E-09     14.75    <-- DIS
    1985       9.72321444       9.72321439       5.654E-09     14.76    <-- DIS
    1986       9.72321437       9.72321431       5.651E-09     14.76    <-- DIS
    1987       9.72321430       9.72321424       5.648E-09     14.77    <-- DIS
    1988       9.72321422       9.72321417       5.645E-09     14.78    <-- DIS
    1989       9.72321415       9.72321409       5.642E-09     14.79    <-- DIS
    1990       9.72321408       9.72321402       5.640E-09     14.79    <-- DIS
    1991       9.72321400       9.72321395       5.637E-09     14.80    <-- DIS
    1992       9.72321393       9.72321388       5.634E-09     14.81    <-- DIS
    1993       9.72321386       9.72321380       5.631E-09     14.81    <-- DIS
    1994       9.72321378       9.72321373       5.628E-09     14.82    <-- DIS
    1995       9.72321371       9.72321366       5.625E-09     14.83    <-- DIS
    1996       9.72321364       9.72321358       5.622E-09     14.84    <-- DIS
    1997       9.72321357       9.72321351       5.619E-09     14.84    <-- DIS
    1998       9.72321349       9.72321344       5.616E-09     14.85    <-- DIS
    1999       9.72321342       9.72321337       5.614E-09     14.86    <-- DIS
    2000       9.72321335       9.72321329       5.611E-09     14.86    <-- DIS

     <<< Warning: Maximum number of disentanglement iterations reached >>>
          <<< Disentanglement convergence criteria not satisfied >>>

        Final Omega_I     9.72321329 (Ang^2)

 +----------------------------------------------------------------------------+

 Time to disentangle bands     14.233 (sec)

 Writing checkpoint file Fe.chk... done

 
 *------------------------------- WANNIERISE ---------------------------------*
 +--------------------------------------------------------------------+<-- CONV
 | Iter  Delta Spread     RMS Gradient      Spread (Ang^2)      Time  |<-- CONV
 +--------------------------------------------------------------------+<-- CONV
 
 ------------------------------------------------------------------------------
 Initial State
  WF centre and spread    1  ( -0.620149, -0.002395,  0.003484 )     1.47738795
  WF centre and spread    2  ( -0.639656,  0.003635, -0.001697 )     1.20804533
  WF centre and spread    3  (  0.621259, -0.002986, -0.007360 )     1.47480361
  WF centre and spread    4  (  0.683540, -0.002758, -0.009026 )     1.19807716
  WF centre and spread    5  (  0.045042, -0.597464, -0.010326 )     1.58691723
  WF centre and spread    6  (  0.010018, -0.648038, -0.007653 )     1.21425104
  WF centre and spread    7  (  0.046687,  0.593300, -0.009693 )     1.59668199
  WF centre and spread    8  (  0.001204,  0.698079, -0.002974 )     1.20196285
  WF centre and spread    9  (  0.013056,  0.007871, -0.611640 )     1.49598712
  WF centre and spread   10  (  0.008527,  0.004345, -0.666886 )     1.19424483
  WF centre and spread   11  (  0.015268,  0.007605,  0.623286 )     1.48481314
  WF centre and spread   12  (  0.003428,  0.001334,  0.662136 )     1.19607001
  WF centre and spread   13  ( -0.000055,  0.000010,  0.000095 )     0.49279119
  WF centre and spread   14  (  0.000046,  0.000001,  0.000037 )     0.51688074
  WF centre and spread   15  ( -0.000071,  0.000018,  0.000013 )     0.49972956
  WF centre and spread   16  (  0.000038,  0.000017,  0.000015 )     0.51858179
  WF centre and spread   17  (  0.000027, -0.000002, -0.000088 )     0.49913436
  WF centre and spread   18  ( -0.000083, -0.000022, -0.000015 )     0.51812098
  Sum of centres and spreads (  0.188126,  0.062549, -0.038290 )    19.37448086
 
      0     0.194E+02     0.0000000000       19.3744809567      14.93  <-- CONV
        O_D=      0.5342508 O_OD=      9.1170169 O_TOT=     19.3744810 <-- SPRD
 ------------------------------------------------------------------------------
 Final State
  WF centre and spread    1  ( -0.620149, -0.002395,  0.003484 )     1.47738795
  WF centre and spread    2  ( -0.639656,  0.003635, -0.001697 )     1.20804533
  WF centre and spread    3  (  0.621259, -0.002986, -0.007360 )     1.47480361
  WF centre and spread    4  (  0.683540, -0.002758, -0.009026 )     1.19807716
  WF centre and spread    5  (  0.045042, -0.597464, -0.010326 )     1.58691723
  WF centre and spread    6  (  0.010018, -0.648038, -0.007653 )     1.21425104
  WF centre and spread    7  (  0.046687,  0.593300, -0.009693 )     1.59668199
  WF centre and spread    8  (  0.001204,  0.698079, -0.002974 )     1.20196285
  WF centre and spread    9  (  0.013056,  0.007871, -0.611640 )     1.49598712
  WF centre and spread   10  (  0.008527,  0.004345, -0.666886 )     1.19424483
  WF centre and spread   11  (  0.015268,  0.007605,  0.623286 )     1.48481314
  WF centre and spread   12  (  0.003428,  0.001334,  0.662136 )     1.19607001
  WF centre and spread   13  ( -0.000055,  0.000010,  0.000095 )     0.49279119
  WF centre and spread   14  (  0.000046,  0.000001,  0.000037 )     0.51688074
  WF centre and spread   15  ( -0.000071,  0.000018,  0.000013 )     0.49972956
  WF centre and spread   16  (  0.000038,  0.000017,  0.000015 )     0.51858179
  WF centre and spread   17  (  0.000027, -0.000002, -0.000088 )     0.49913436
  WF centre and spread   18  ( -0.000083, -0.000022, -0.000015 )     0.51812098
  Sum of centres and spreads (  0.188126,  0.062549, -0.038290 )    19.37448086
 
         Spreads (Ang^2)       Omega I      =     9.723213293
        ================       Omega D      =     0.534250756
                               Omega OD     =     9.117016908
    Final Spread (Ang^2)       Omega Total  =    19.374480957
 ------------------------------------------------------------------------------
 Time for wannierise            0.007 (sec)

 Writing checkpoint file Fe.chk... done

 Time for plotting              0.000 (sec)
 Total Execution Time          14.447 (sec)

 *===========================================================================*
 |                             TIMING INFORMATION                            |
 *===========================================================================*
 |    Tag                                                Ncalls      Time (s)|
 |---------------------------------------------------------------------------|
 |kmesh: get                                        :         1         0.024|
 |overlap: read                                     :         1         0.168|
 |dis: main                                         :         1        14.233|
 |wann: main                                        :         1         0.007|
 |plot: main                                        :         1         0.000|
 *---------------------------------------------------------------------------*
 
 All done: wannier90 exiting
