 written on 13May2022 at 01:23:14 
   1.43499629539393        1.43499629539393        1.43499629539393     
  -1.43499629539393        1.43499629539393        1.43499629539393     
  -1.43499629539393       -1.43499629539393        1.43499629539393     
          18
          27
    1    1    1    1    1    1    1    1    1    1    1    1    1    1    1
    1    1    1    1    1    1    1    1    1    1    1    1

   -2    1   -1
    1    1    0.18862052E-02  0.32456582E-09
    2    1    0.29178337E-03 -0.58016959E-08
    3    1   -0.67198939E-01  0.24210220E-09
    4    1    0.34866836E-03  0.43315619E-08
    5    1   -0.64370586E-01 -0.23457829E-03
    6    1    0.20637835E-03  0.72309876E-03
    7    1   -0.64370563E-01  0.23457809E-03
    8    1    0.20636253E-03 -0.72309657E-03
    9    1    0.72621981E-02  0.10277967E-09
   10    1    0.68239544E-03  0.14680303E-08
   11    1   -0.60677617E-01  0.14296471E-09
   12    1    0.21116152E-03 -0.28483681E-08
   13    1    0.27586032E-01  0.31689147E-09
   14    1    0.18887961E-03 -0.32732989E-08
   15    1   -0.14921088E-08  0.62394239E-03
   16    1   -0.20661120E-08 -0.21739497E-03
   17    1   -0.66616952E-08  0.96732361E-03
   18    1   -0.63875034E-09  0.37166336E-03
    1    2   -0.14688222E-03  0.49861894E-08
    2    2    0.99214971E-02 -0.80794371E-10
    3    2    0.34866234E-03 -0.30629270E-08
    4    2   -0.64276580E-01  0.80924989E-09
    5    2   -0.29693069E-03  0.33983505E-03
    6    2   -0.46585279E-01  0.21980926E-03
    7    2   -0.29693012E-03 -0.33983690E-03
    8    2   -0.46585257E-01 -0.21980957E-03
    9    2   -0.38572186E-03  0.47197352E-08
   10    2    0.28069624E-01  0.15736519E-08
   11    2   -0.20218287E-03 -0.43320469E-09
   12    2   -0.75928454E-01 -0.10576313E-08
   13    2   -0.99470733E-03  0.61148923E-08
   14    2    0.34246702E-01  0.40668547E-09
   15    2    0.45049670E-08 -0.22977099E-04
   16    2   -0.60527243E-09 -0.54701668E-03
   17    2    0.28784266E-08  0.25459386E-03
   18    2   -0.77009326E-08 -0.81176190E-03
    1    3   -0.12188469E+00 -0.37910367E-09
    2    3   -0.20761724E-03  0.32422271E-08
    3    3    0.18862043E-02  0.29329983E-10
    4    3   -0.14688399E-03 -0.19995276E-08
    5    3   -0.78294802E-01 -0.15979146E-03
    6    3   -0.41772003E-03  0.64043613E-04
    7    3   -0.78294845E-01  0.15979178E-03
    8    3   -0.41771582E-03 -0.64041939E-04
    9    3   -0.16107379E+00 -0.10981877E-09
   10    3    0.12304335E-03 -0.32253878E-08
   11    3    0.72516654E-02 -0.85724573E-10
   12    3    0.38434040E-03  0.51259711E-08
   13    3   -0.34598850E-01 -0.27022496E-09
   14    3   -0.14936449E-03  0.18256445E-08
   15    3    0.64285830E-08  0.95460209E-03
   16    3    0.94893901E-09 -0.14445098E-02
   17    3    0.86204836E-08  0.53225635E-03
   18    3   -0.47911174E-09 -0.83310201E-03
    1    4   -0.20761494E-03 -0.39553029E-08
    2    4   -0.15992756E+00  0.78954898E-10
    3    4    0.29178450E-03  0.16988256E-08
    4    4    0.99214968E-02 -0.15413582E-09
    5    4    0.50030254E-03  0.21417525E-03
    6    4   -0.68856143E-01  0.20737149E-03
    7    4    0.50030318E-03 -0.21417587E-03
    8    4   -0.68856183E-01 -0.20737051E-03
    9    4   -0.10325230E-03 -0.35523704E-08
   10    4   -0.21543687E+00 -0.10590619E-08
   11    4   -0.68727466E-03 -0.26997092E-08
   12    4    0.28064526E-01  0.12595310E-08
   13    4    0.18236592E-02 -0.62959530E-08
   14    4   -0.59566909E-01 -0.23602871E-09
   15    4   -0.35034762E-08 -0.13881188E-02
   16    4    0.42366878E-08 -0.56460787E-03
   17    4   -0.22163278E-08 -0.10963058E-02
   18    4    0.72234770E-08 -0.38237512E-03
    1    5   -0.78294845E-01 -0.15979194E-03
    2    5    0.50029399E-03  0.21417140E-03
    3    5   -0.64370563E-01 -0.23457768E-03
    4    5   -0.29692315E-03  0.33983655E-03
    5    5   -0.75058192E-01  0.41602291E-04
    6    5   -0.33822530E-04 -0.49317145E-04
    7    5   -0.10170775E+00 -0.32700939E-09
    8    5    0.33866388E-04  0.47604987E-03
    9    5   -0.78295859E-01 -0.90772376E-03
   10    5   -0.49884653E-03 -0.23535212E-03
   11    5   -0.64370976E-01  0.76540114E-05
   12    5    0.30172236E-03  0.81304592E-03
   13    5   -0.27947735E-01 -0.13021087E-03
   14    5    0.17225597E-05 -0.60815716E-04
   15    5   -0.26050646E-01 -0.13329684E-03
   16    5   -0.16150481E-03  0.12105823E-03
   17    5   -0.26054530E-01 -0.41446083E-03
   18    5    0.17212410E-03  0.27146136E-03
    1    6   -0.41771877E-03  0.64037973E-04
    2    6   -0.68856183E-01  0.20736986E-03
    3    6    0.20637928E-03  0.72309745E-03
    4    6   -0.46585256E-01  0.21981123E-03
    5    6   -0.33820514E-04 -0.49309826E-04
    6    6   -0.36238806E-01  0.25981227E-03
    7    6    0.33863481E-04 -0.47604937E-03
    8    6   -0.10176379E+00 -0.58571120E-09
    9    6    0.42205904E-03  0.31542459E-03
   10    6   -0.68852682E-01  0.67153449E-03
   11    6   -0.19935703E-03  0.31889077E-03
   12    6   -0.46593036E-01  0.75992055E-04
   13    6    0.28300648E-04  0.44634976E-03
   14    6   -0.18259546E-01  0.17838285E-03
   15    6    0.11684815E-03  0.96218019E-03
   16    6   -0.53419914E-02  0.11387919E-03
   17    6   -0.10137793E-03  0.73494904E-04
   18    6   -0.53420320E-02  0.13214468E-03
    1    7   -0.78294802E-01  0.15979221E-03
    2    7    0.50031555E-03 -0.21416504E-03
    3    7   -0.64370587E-01  0.23457760E-03
    4    7   -0.29693799E-03 -0.33984389E-03
    5    7   -0.10170780E+00 -0.31289737E-09
    6    7    0.33861500E-04 -0.47604301E-03
    7    7   -0.75058194E-01 -0.41601888E-04
    8    7   -0.33819759E-04  0.49309839E-04
    9    7   -0.78295818E-01  0.90772355E-03
   10    7   -0.49884747E-03  0.23535347E-03
   11    7   -0.64371000E-01 -0.76543018E-05
   12    7    0.30172988E-03 -0.81304764E-03
   13    7   -0.27947725E-01  0.13021093E-03
   14    7    0.17319186E-05  0.60818688E-04
   15    7    0.26050650E-01 -0.13329749E-03
   16    7    0.16150337E-03  0.12105419E-03
   17    7    0.26054534E-01 -0.41446139E-03
   18    7   -0.17212308E-03  0.27145582E-03
    1    8   -0.41772880E-03 -0.64040284E-04
    2    8   -0.68856142E-01 -0.20736921E-03
    3    8    0.20637629E-03 -0.72309628E-03
    4    8   -0.46585281E-01 -0.21981128E-03
    5    8    0.33867463E-04  0.47604158E-03
    6    8   -0.10176382E+00  0.45053478E-09
    7    8   -0.33820457E-04  0.49317060E-04
    8    8   -0.36238810E-01 -0.25981169E-03
    9    8    0.42204394E-03 -0.31542849E-03
   10    8   -0.68852644E-01 -0.67153446E-03
   11    8   -0.19934250E-03 -0.31888611E-03
   12    8   -0.46593061E-01 -0.75991630E-04
   13    8    0.28287892E-04 -0.44635258E-03
   14    8   -0.18259541E-01 -0.17838267E-03
   15    8   -0.11684891E-03  0.96218489E-03
   16    8    0.53419924E-02  0.11387847E-03
   17    8    0.10137886E-03  0.73502537E-04
   18    8    0.53420324E-02  0.13214419E-03
    1    9    0.72516654E-02 -0.33708364E-09
    2    9   -0.68727540E-03 -0.74415590E-08
    3    9   -0.60677617E-01  0.24218035E-09
    4    9   -0.20217675E-03  0.50193757E-08
    5    9   -0.64370999E-01  0.76536488E-05
    6    9   -0.19935321E-03  0.31889202E-03
    7    9   -0.64370975E-01 -0.76541843E-05
    8    9   -0.19935567E-03 -0.31888992E-03
    9    9    0.18713539E-02  0.36630654E-09
   10    9   -0.34699670E-03  0.51654733E-09
   11    9   -0.67179723E-01 -0.52030864E-09
   12    9   -0.30024620E-03 -0.34369001E-08
   13    9    0.27586865E-01  0.13424322E-09
   14    9   -0.18511629E-03 -0.35665609E-08
   15    9   -0.64232282E-08 -0.81875542E-03
   16    9   -0.12531360E-09 -0.73573229E-03
   17    9   -0.18584841E-08  0.22691876E-03
   18    9    0.80059760E-09 -0.48715767E-03
    1   10    0.38434502E-03 -0.20069672E-08
    2   10    0.28064525E-01 -0.12142458E-08
    3   10    0.21116680E-03  0.39619003E-08
    4   10   -0.75928454E-01  0.10137040E-08
    5   10    0.30171900E-03  0.81304799E-03
    6   10   -0.46593057E-01  0.75991490E-04
    7   10    0.30172878E-03 -0.81305056E-03
    8   10   -0.46593040E-01 -0.75991119E-04
    9   10    0.77070131E-04  0.29498439E-08
   10   10    0.99447766E-02  0.24350477E-09
   11   10   -0.30024309E-03 -0.13939686E-08
   12   10   -0.64334418E-01 -0.36807044E-09
   13   10    0.97864259E-03  0.15548986E-08
   14   10    0.34245932E-01  0.13710069E-09
   15   10   -0.23825729E-08 -0.13162797E-02
   16   10   -0.81454437E-08  0.28535118E-03
   17   10   -0.31543446E-09 -0.84042261E-03
   18   10   -0.18528043E-08 -0.46810816E-04
    1   11   -0.16107379E+00  0.58971167E-09
    2   11   -0.10325123E-03  0.13617355E-08
    3   11    0.72621974E-02 -0.20877242E-09
    4   11   -0.38573164E-03  0.18691550E-08
    5   11   -0.78295817E-01 -0.90772354E-03
    6   11    0.42205228E-03  0.31543216E-03
    7   11   -0.78295861E-01  0.90772398E-03
    8   11    0.42205368E-03 -0.31543336E-03
    9   11   -0.12190146E+00 -0.46861031E-09
   10   11    0.29237187E-03 -0.27758495E-09
   11   11    0.18713542E-02  0.51737936E-09
   12   11    0.77062896E-04  0.32577985E-08
   13   11   -0.34597491E-01 -0.19705658E-09
   14   11    0.14188418E-03  0.48141560E-08
   15   11    0.85237241E-08  0.12132818E-02
   16   11    0.86643437E-09 -0.97139188E-03
   17   11    0.67441625E-08  0.16206708E-02
   18   11   -0.13754776E-08 -0.90739692E-03
    1   12    0.12304015E-03  0.32512148E-08
    2   12   -0.21543687E+00  0.14181338E-08
    3   12    0.68238750E-03 -0.57043557E-08
    4   12    0.28069623E-01 -0.70066777E-09
    5   12   -0.49884242E-03 -0.23535024E-03
    6   12   -0.68852645E-01  0.67153556E-03
    7   12   -0.49884667E-03  0.23534904E-03
    8   12   -0.68852680E-01 -0.67153559E-03
    9   12    0.29236735E-03 -0.28164589E-08
   10   12   -0.15990229E+00  0.20070151E-09
   11   12   -0.34699959E-03  0.71919348E-09
   12   12    0.99447774E-02  0.26175984E-09
   13   12   -0.17874908E-02 -0.26291322E-08
   14   12   -0.59570019E-01  0.59315608E-10
   15   12    0.30310963E-08  0.67649088E-03
   16   12    0.76899007E-08 -0.83784692E-03
   17   12    0.26067579E-08 -0.69228050E-03
   18   12    0.51315057E-08 -0.12528282E-02
    1   13   -0.34598851E-01 -0.59562928E-10
    2   13    0.18236638E-02 -0.23315011E-08
    3   13    0.27586032E-01  0.17584609E-09
    4   13   -0.99470681E-03  0.33811206E-09
    5   13   -0.27947725E-01 -0.13021073E-03
    6   13    0.28300112E-04  0.44636058E-03
    7   13   -0.27947735E-01  0.13021099E-03
    8   13    0.28289970E-04 -0.44636004E-03
    9   13   -0.34597491E-01 -0.10688223E-09
   10   13   -0.17874831E-02 -0.36301629E-08
   11   13    0.27586864E-01  0.27662411E-09
   12   13    0.97863697E-03  0.15504141E-08
   13   13   -0.28636734E-01  0.11891133E-09
   14   13   -0.90473290E-05 -0.11168767E-08
   15   13    0.25755659E-08  0.54279570E-03
   16   13   -0.23430864E-08 -0.91423797E-03
   17   13    0.27660211E-08  0.86901604E-03
   18   13    0.86391462E-09 -0.52584425E-03
    1   14   -0.14935286E-03  0.23276884E-08
    2   14   -0.59566909E-01 -0.77553909E-09
    3   14    0.18887043E-03  0.87079892E-09
    4   14    0.34246703E-01  0.90223183E-09
    5   14    0.17241831E-05 -0.60810398E-04
    6   14   -0.18259540E-01  0.17838323E-03
    7   14    0.17341244E-05  0.60809353E-04
    8   14   -0.18259547E-01 -0.17838320E-03
    9   14    0.14188720E-03  0.22553642E-08
   10   14   -0.59570019E-01 -0.36737587E-10
   11   14   -0.18511853E-03 -0.21390391E-08
   12   14    0.34245933E-01 -0.55324145E-10
   13   14   -0.90459307E-05  0.10365696E-08
   14   14   -0.31179902E-01  0.75496498E-10
   15   14    0.26722353E-09 -0.11508997E-02
   16   14    0.22887345E-08 -0.36103198E-03
   17   14    0.21135769E-08 -0.50199024E-03
   18   14    0.22946716E-08 -0.80085854E-03
    1   15    0.62639250E-08 -0.95460217E-03
    2   15    0.18124239E-08  0.13881184E-02
    3   15   -0.16243864E-08 -0.62394270E-03
    4   15   -0.21651156E-08  0.22978424E-04
    5   15    0.26050651E-01  0.13329674E-03
    6   15   -0.11686445E-03 -0.96217737E-03
    7   15   -0.26050647E-01  0.13329728E-03
    8   15    0.11686440E-03 -0.96218712E-03
    9   15    0.82669183E-08 -0.12132818E-02
   10   15   -0.19215093E-09 -0.67648591E-03
   11   15   -0.64594949E-08  0.81875516E-03
   12   15    0.48040614E-09  0.13162743E-02
   13   15    0.27634534E-08 -0.54279574E-03
   14   15    0.12579775E-08  0.11508999E-02
   15   15    0.33806899E-01  0.65678130E-10
   16   15   -0.16733976E-03 -0.16744267E-08
   17   15    0.36030705E-01 -0.17504600E-09
   18   15   -0.42335692E-03  0.68399032E-09
    1   16   -0.27589908E-08  0.14445122E-02
    2   16    0.45166220E-08  0.56460843E-03
    3   16    0.42497518E-08  0.21739205E-03
    4   16   -0.17676850E-08  0.54701621E-03
    5   16    0.16150121E-03 -0.12106306E-03
    6   16    0.53419918E-02 -0.11387889E-03
    7   16   -0.16149911E-03 -0.12105310E-03
    8   16   -0.53419916E-02 -0.11387897E-03
    9   16   -0.19115429E-08  0.97138945E-03
   10   16    0.67946026E-08  0.83784678E-03
   11   16    0.68992489E-09  0.73573464E-03
   12   16   -0.73713492E-08 -0.28535095E-03
   13   16    0.26221021E-09  0.91423529E-03
   14   16    0.23456045E-08  0.36103171E-03
   15   16   -0.16733940E-03  0.15436131E-08
   16   16    0.23923983E-01 -0.86305407E-10
   17   16    0.45012892E-03  0.51496907E-09
   18   16    0.25365681E-01  0.16848259E-09
    1   17    0.83057756E-08 -0.53225633E-03
    2   17    0.25327375E-08  0.10963011E-02
    3   17   -0.63643340E-08 -0.96732366E-03
    4   17   -0.11639099E-08 -0.25458946E-03
    5   17    0.26054534E-01  0.41446040E-03
    6   17    0.10136881E-03 -0.73493564E-04
    7   17   -0.26054530E-01  0.41446184E-03
    8   17   -0.10137092E-03 -0.73506577E-04
    9   17    0.64704401E-08 -0.16206715E-02
   10   17   -0.96059414E-09  0.69228596E-03
   11   17   -0.17677084E-08 -0.22691798E-03
   12   17    0.52433758E-09  0.84041532E-03
   13   17    0.27898061E-08 -0.86901609E-03
   14   17   -0.26606819E-10  0.50198849E-03
   15   17    0.36030705E-01  0.72747263E-10
   16   17    0.45012658E-03 -0.12905224E-08
   17   17    0.33765358E-01  0.89062757E-10
   18   17    0.16018406E-03  0.17969897E-09
    1   18    0.61529495E-09  0.83310565E-03
    2   18    0.69768250E-08  0.38237490E-03
    3   18   -0.16562056E-08 -0.37166679E-03
    4   18   -0.73922953E-08  0.81176198E-03
    5   18   -0.17212914E-03 -0.27145952E-03
    6   18    0.53420329E-02 -0.13214454E-03
    7   18    0.17212858E-03 -0.27145523E-03
    8   18   -0.53420322E-02 -0.13214434E-03
    9   18    0.15948888E-08  0.90739956E-03
   10   18    0.42600135E-08  0.12528277E-02
   11   18   -0.55414000E-09  0.48715574E-03
   12   18   -0.11947080E-08  0.46811291E-04
   13   18   -0.76870134E-09  0.52584537E-03
   14   18    0.28028277E-08  0.80085849E-03
   15   18   -0.42335787E-03 -0.90237390E-09
   16   18    0.25365682E-01 -0.14780381E-09
   17   18    0.16018387E-03  0.90806574E-09
   18   18    0.23935024E-01  0.11776347E-09

   -1   -1    0
    1    1   -0.75058195E-01 -0.41601695E-04
    2    1   -0.49313179E-04 -0.33826316E-04
    3    1   -0.10170776E+00 -0.43328502E-09
    4    1    0.47604899E-03  0.33870637E-04
    5    1   -0.78294833E-01  0.15979147E-03
    6    1    0.21417544E-03  0.50031324E-03
    7    1   -0.64370572E-01  0.23457755E-03
    8    1    0.33983311E-03 -0.29693674E-03
    9    1   -0.78295847E-01  0.90772398E-03
   10    1   -0.23534669E-03 -0.49884034E-03
   11    1   -0.64370987E-01 -0.76545589E-05
   12    1    0.81304179E-03  0.30172248E-03
   13    1   -0.26050646E-01  0.13329737E-03
   14    1    0.12105948E-03 -0.16150719E-03
   15    1   -0.27947734E-01  0.13021050E-03
   16    1   -0.60817080E-04  0.17299751E-05
   17    1   -0.26054530E-01  0.41446111E-03
   18    1    0.27145800E-03  0.17212318E-03
    1    2    0.49309613E-04  0.33834170E-04
    2    2   -0.36238808E-01 -0.25981115E-03
    3    2    0.47604436E-03 -0.33877694E-04
    4    2   -0.10176379E+00 -0.11152819E-08
    5    2   -0.64051456E-04  0.41772523E-03
    6    2   -0.68856173E-01 -0.20737074E-03
    7    2   -0.72308548E-03 -0.20637831E-03
    8    2   -0.46585265E-01 -0.21981061E-03
    9    2   -0.31543640E-03 -0.42204230E-03
   10    2   -0.68852671E-01 -0.67153514E-03
   11    2   -0.31888040E-03  0.19934006E-03
   12    2   -0.46593048E-01 -0.75991614E-04
   13    2   -0.96219089E-03 -0.11684845E-03
   14    2   -0.53419902E-02 -0.11387821E-03
   15    2   -0.44635071E-03 -0.28293958E-04
   16    2   -0.18259546E-01 -0.17838301E-03
   17    2   -0.73501834E-04  0.10138226E-03
   18    2   -0.53420300E-02 -0.13214419E-03
    1    3   -0.10170776E+00 -0.11022579E-08
    2    3   -0.47605228E-03  0.33870940E-04
    3    3   -0.75058196E-01  0.41602786E-04
    4    3    0.49314603E-04 -0.33828931E-04
    5    3   -0.78294832E-01 -0.15979194E-03
    6    3   -0.21417074E-03  0.50029627E-03
    7    3   -0.64370575E-01 -0.23457752E-03
    8    3   -0.33983640E-03 -0.29692104E-03
    9    3   -0.78295850E-01 -0.90772380E-03
   10    3    0.23534914E-03 -0.49885240E-03
   11    3   -0.64370983E-01  0.76541457E-05
   12    3   -0.81304548E-03  0.30173094E-03
   13    3    0.26050647E-01  0.13329707E-03
   14    3    0.12105381E-03  0.16150533E-03
   15    3   -0.27947734E-01 -0.13021053E-03
   16    3    0.60816525E-04  0.17279167E-05
   17    3    0.26054530E-01  0.41446123E-03
   18    3    0.27145768E-03 -0.17212326E-03
    1    4   -0.47604072E-03 -0.33876037E-04
    2    4   -0.10176379E+00 -0.13111164E-08
    3    4   -0.49312209E-04  0.33831498E-04
    4    4   -0.36238809E-01  0.25981221E-03
    5    4    0.64044964E-04  0.41771843E-03
    6    4   -0.68856169E-01  0.20737103E-03
    7    4    0.72309075E-03 -0.20637686E-03
    8    4   -0.46585270E-01  0.21980943E-03
    9    4    0.31543275E-03 -0.42206313E-03
   10    4   -0.68852673E-01  0.67153451E-03
   11    4    0.31888529E-03  0.19935862E-03
   12    4   -0.46593046E-01  0.75991496E-04
   13    4   -0.96217353E-03  0.11684783E-03
   14    4    0.53419896E-02 -0.11387988E-03
   15    4    0.44635110E-03 -0.28295517E-04
   16    4   -0.18259548E-01  0.17838308E-03
   17    4   -0.73495727E-04 -0.10138220E-03
   18    4    0.53420303E-02 -0.13214508E-03
    1    5   -0.64370574E-01  0.23457745E-03
    2    5    0.72308565E-03  0.20636712E-03
    3    5   -0.64370571E-01 -0.23457764E-03
    4    5   -0.72309203E-03  0.20637656E-03
    5    5    0.18862069E-02  0.36669223E-10
    6    5    0.28638796E-08  0.29178339E-03
    7    5   -0.67198941E-01 -0.42857182E-09
    8    5    0.79662812E-10  0.34866947E-03
    9    5    0.72622005E-02 -0.18684498E-10
   10    5    0.31581166E-08  0.68239088E-03
   11    5   -0.60677614E-01  0.69171252E-10
   12    5   -0.16821776E-08  0.21116726E-03
   13    5   -0.85364709E-09 -0.62394234E-03
   14    5   -0.21739691E-03 -0.94529388E-10
   15    5    0.27586032E-01  0.16190743E-10
   16    5    0.42770197E-08  0.18887828E-03
   17    5    0.12081724E-08 -0.96732349E-03
   18    5    0.37166150E-03 -0.15359584E-09
    1    6   -0.33983975E-03  0.29692219E-03
    2    6   -0.46585266E-01 -0.21981164E-03
    3    6    0.33984537E-03  0.29694196E-03
    4    6   -0.46585264E-01  0.21981048E-03
    5    6    0.10123982E-08  0.14688738E-03
    6    6    0.99214987E-02  0.73580364E-09
    7    6   -0.53107590E-08 -0.34867002E-03
    8    6   -0.64276582E-01 -0.41261561E-09
    9    6    0.75632221E-08  0.38571347E-03
   10    6    0.28069622E-01 -0.57930949E-09
   11    6   -0.76881139E-08  0.20218650E-03
   12    6   -0.75928449E-01  0.64071397E-09
   13    6    0.22978865E-04 -0.41646003E-08
   14    6   -0.13709623E-08  0.54701626E-03
   15    6   -0.41804437E-08  0.99470807E-03
   16    6    0.34246701E-01  0.92543519E-09
   17    6   -0.25459427E-03 -0.29321168E-08
   18    6    0.91321526E-09  0.81176152E-03
    1    7   -0.78294831E-01  0.15979237E-03
    2    7    0.64053195E-04 -0.41771231E-03
    3    7   -0.78294834E-01 -0.15979238E-03
    4    7   -0.64048329E-04 -0.41772445E-03
    5    7   -0.12188470E+00 -0.37104206E-09
    6    7   -0.71825422E-08 -0.20761307E-03
    7    7    0.18862070E-02  0.58268923E-09
    8    7    0.50181078E-08 -0.14688820E-03
    9    7   -0.16107381E+00  0.51476379E-10
   10    7   -0.24285017E-08  0.12304875E-03
   11    7    0.72516681E-02 -0.48078035E-09
   12    7    0.14747736E-08  0.38433568E-03
   13    7    0.40514165E-09 -0.95460217E-03
   14    7   -0.14445102E-02  0.20299309E-08
   15    7   -0.34598853E-01 -0.58960777E-10
   16    7   -0.45273091E-08 -0.14936439E-03
   17    7    0.53611218E-09 -0.53225637E-03
   18    7   -0.83309977E-03  0.22063820E-08
    1    8   -0.21417596E-03 -0.50029679E-03
    2    8   -0.68856172E-01 -0.20736914E-03
    3    8    0.21416882E-03 -0.50031519E-03
    4    8   -0.68856174E-01  0.20736893E-03
    5    8   -0.52628068E-09  0.20760830E-03
    6    8   -0.15992758E+00 -0.19191641E-08
    7    8    0.27902507E-08 -0.29177623E-03
    8    8    0.99215015E-02  0.63007521E-09
    9    8   -0.91796101E-08  0.10325833E-03
   10    8   -0.21543689E+00 -0.97159308E-10
   11    8    0.74603877E-08  0.68727279E-03
   12    8    0.28064526E-01 -0.77214062E-09
   13    8    0.13881152E-02  0.36360168E-08
   14    8    0.55216435E-09  0.56460799E-03
   15    8    0.26180845E-08 -0.18236577E-02
   16    8   -0.59566909E-01 -0.80120792E-09
   17    8    0.10963053E-02  0.52286271E-08
   18    8    0.41328411E-09  0.38237510E-03
    1    9   -0.64370983E-01 -0.76537388E-05
    2    9    0.31888346E-03 -0.19936118E-03
    3    9   -0.64370986E-01  0.76532860E-05
    4    9   -0.31888665E-03 -0.19934770E-03
    5    9    0.72516675E-02 -0.27170158E-09
    6    9    0.45682970E-08 -0.68726623E-03
    7    9   -0.60677613E-01  0.82601356E-10
    8    9   -0.32549701E-08 -0.20218311E-03
    9    9    0.18713590E-02 -0.12763368E-09
   10    9   -0.38531219E-09 -0.34699452E-03
   11    9   -0.67179727E-01  0.35636015E-09
   12    9    0.11779911E-08 -0.30024738E-03
   13    9   -0.79833186E-09  0.81875575E-03
   14    9   -0.73572887E-03 -0.30262305E-08
   15    9    0.27586865E-01  0.21535735E-09
   16    9    0.15516377E-09 -0.18511586E-03
   17    9    0.12255810E-08 -0.22691833E-03
   18    9   -0.48715660E-03 -0.25803554E-08
    1   10   -0.81304146E-03 -0.30172744E-03
    2   10   -0.46593044E-01 -0.75991202E-04
    3   10    0.81304343E-03 -0.30171796E-03
    4   10   -0.46593047E-01  0.75990678E-04
    5   10    0.49460421E-09 -0.38434403E-03
    6   10    0.28064527E-01  0.40097793E-09
    7   10    0.20193764E-08 -0.21116691E-03
    8   10   -0.75928450E-01 -0.15874153E-09
    9   10    0.56741465E-08 -0.77066976E-04
   10   10    0.99447802E-02  0.71514350E-10
   11   10   -0.38380848E-08  0.30024101E-03
   12   10   -0.64334421E-01 -0.28453156E-10
   13   10    0.13162800E-02 -0.65378716E-09
   14   10   -0.15479674E-08 -0.28535159E-03
   15   10   -0.13344110E-08 -0.97864227E-03
   16   10    0.34245933E-01  0.69477320E-10
   17   10    0.84042181E-03 -0.17539876E-08
   18   10    0.62664756E-09  0.46810699E-04
    1   11   -0.78295850E-01  0.90772426E-03
    2   11    0.31544152E-03  0.42206131E-03
    3   11   -0.78295848E-01 -0.90772405E-03
    4   11   -0.31543911E-03  0.42204798E-03
    5   11   -0.16107381E+00 -0.15023960E-09
    6   11   -0.78605754E-08 -0.10325628E-03
    7   11    0.72621991E-02  0.28300984E-09
    8   11    0.52228027E-08 -0.38572707E-03
    9   11   -0.12190148E+00  0.11479441E-09
   10   11   -0.83169603E-09  0.29237222E-03
   11   11    0.18713592E-02 -0.37742387E-09
   12   11   -0.11038814E-08  0.77063628E-04
   13   11   -0.62738500E-09 -0.12132821E-02
   14   11   -0.97139350E-03  0.48112164E-08
   15   11   -0.34597494E-01 -0.10946974E-09
   16   11   -0.63406416E-09  0.14188090E-03
   17   11   -0.36121258E-09 -0.16206711E-02
   18   11   -0.90739705E-03  0.26094408E-08
    1   12    0.23534053E-03  0.49885022E-03
    2   12   -0.68852674E-01 -0.67153576E-03
    3   12   -0.23534369E-03  0.49883701E-03
    4   12   -0.68852672E-01  0.67153532E-03
    5   12   -0.29558996E-08 -0.12304383E-03
    6   12   -0.21543689E+00 -0.11064772E-08
    7   12   -0.15665018E-08 -0.68238701E-03
    8   12    0.28069626E-01  0.19602586E-09
    9   12   -0.58514251E-08 -0.29237289E-03
   10   12   -0.15990230E+00 -0.69132470E-09
   11   12    0.43908474E-08  0.34700408E-03
   12   12    0.99447824E-02  0.14352741E-09
   13   12   -0.67649303E-03  0.20298188E-08
   14   12   -0.46069878E-10  0.83784697E-03
   15   12    0.94361203E-09  0.17874912E-02
   16   12   -0.59570020E-01 -0.83441845E-11
   17   12    0.69228140E-03  0.31793982E-08
   18   12    0.13275966E-09  0.12528280E-02
    1   13    0.26050647E-01 -0.13329737E-03
    2   13   -0.96218768E-03 -0.11686533E-03
    3   13   -0.26050647E-01 -0.13329707E-03
    4   13   -0.96217510E-03  0.11686482E-03
    5   13    0.89804628E-09  0.95460170E-03
    6   13    0.13881177E-02  0.21195592E-08
    7   13   -0.16647706E-08  0.62394285E-03
    8   13    0.22976444E-04 -0.14749690E-08
    9   13   -0.75549598E-09  0.12132814E-02
   10   13   -0.67648391E-03  0.12869449E-08
   11   13   -0.79414382E-09 -0.81875500E-03
   12   13    0.13162713E-02 -0.24036846E-08
   13   13    0.33806891E-01  0.62374328E-10
   14   13    0.10541823E-08 -0.16734092E-03
   15   13    0.32462580E-10  0.54279569E-03
   16   13    0.11508978E-02 -0.12442354E-08
   17   13    0.36030700E-01  0.11526206E-10
   18   13    0.76128527E-09 -0.42335845E-03
    1   14    0.12106071E-03 -0.16149751E-03
    2   14    0.53419934E-02  0.11387806E-03
    3   14    0.12105452E-03  0.16150042E-03
    4   14   -0.53419938E-02  0.11388007E-03
    5   14   -0.14445139E-02  0.12668923E-08
    6   14    0.96134102E-10 -0.56460777E-03
    7   14   -0.21739094E-03 -0.21600836E-08
    8   14   -0.89194624E-09 -0.54701617E-03
    9   14   -0.97138757E-03  0.19725397E-08
   10   14   -0.91612808E-09 -0.83784660E-03
   11   14   -0.73573401E-03 -0.33432331E-08
   12   14   -0.45634452E-09  0.28535132E-03
   13   14    0.76519661E-09  0.16734212E-03
   14   14    0.23923976E-01  0.90240926E-10
   15   14   -0.91423682E-03 -0.23233003E-08
   16   14    0.10522761E-09 -0.36103195E-03
   17   14    0.25405720E-08 -0.45012994E-03
   18   14    0.25365677E-01 -0.18578748E-09
    1   15   -0.27947735E-01  0.13021131E-03
    2   15    0.44635969E-03  0.28296209E-04
    3   15   -0.27947734E-01 -0.13021139E-03
    4   15   -0.44635919E-03  0.28297783E-04
    5   15   -0.34598853E-01 -0.60930178E-10
    6   15   -0.38915549E-08  0.18236661E-02
    7   15    0.27586032E-01  0.72264764E-11
    8   15    0.46103234E-08 -0.99471156E-03
    9   15   -0.34597494E-01 -0.21565021E-09
   10   15    0.14014496E-08 -0.17874830E-02
   11   15    0.27586865E-01  0.20539635E-09
   12   15   -0.68223559E-09  0.97863778E-03
   13   15    0.90104943E-10 -0.54279575E-03
   14   15   -0.91423702E-03  0.23508462E-08
   15   15   -0.28636729E-01 -0.49352522E-10
   16   15   -0.22160458E-09 -0.90488397E-05
   17   15   -0.69028649E-10 -0.86901604E-03
   18   15   -0.52584282E-03  0.11742812E-08
    1   16    0.60809097E-04 -0.17298732E-05
    2   16   -0.18259547E-01 -0.17838285E-03
    3   16   -0.60807797E-04 -0.17300139E-05
    4   16   -0.18259549E-01  0.17838259E-03
    5   16    0.57839447E-08  0.14935301E-03
    6   16   -0.59566913E-01 -0.64088022E-09
    7   16   -0.46250112E-08 -0.18886944E-03
    8   16    0.34246703E-01  0.38678691E-09
    9   16   -0.28665178E-09 -0.14189031E-03
   10   16   -0.59570023E-01 -0.48869745E-09
   11   16   -0.14557416E-08  0.18512278E-03
   12   16    0.34245933E-01  0.41101537E-09
   13   16    0.11508966E-02  0.74991779E-10
   14   16    0.26601851E-10  0.36103176E-03
   15   16    0.62250543E-09  0.90496452E-05
   16   16   -0.31179899E-01 -0.25949909E-10
   17   16    0.50198827E-03  0.25996210E-08
   18   16   -0.13815188E-09  0.80085852E-03
    1   17    0.26054530E-01 -0.41446103E-03
    2   17   -0.73501828E-04  0.10136805E-03
    3   17   -0.26054531E-01 -0.41446133E-03
    4   17   -0.73498131E-04 -0.10136525E-03
    5   17    0.11063759E-08  0.53225612E-03
    6   17    0.10962972E-02  0.33357591E-08
    7   17    0.65104324E-09  0.96732372E-03
    8   17   -0.25458788E-03 -0.40694614E-08
    9   17   -0.55643611E-09  0.16206711E-02
   10   17    0.69228481E-03  0.15205239E-08
   11   17    0.15083071E-08  0.22691848E-03
   12   17    0.84041638E-03 -0.16503174E-08
   13   17    0.36030700E-01 -0.18626788E-09
   14   17    0.12520922E-08  0.45012843E-03
   15   17    0.58457389E-10  0.86901604E-03
   16   17    0.50198763E-03 -0.14235044E-08
   17   17    0.33765350E-01  0.10926149E-09
   18   17    0.42404966E-11  0.16018388E-03
    1   18    0.27145937E-03  0.17213056E-03
    2   18    0.53420338E-02  0.13214434E-03
    3   18    0.27145492E-03 -0.17212952E-03
    4   18   -0.53420333E-02  0.13214485E-03
    5   18   -0.83310622E-03 -0.13278158E-09
    6   18    0.31226161E-09 -0.38237500E-03
    7   18    0.37166803E-03 -0.32416576E-09
    8   18    0.13598837E-08 -0.81176185E-03
    9   18   -0.90739706E-03  0.21912029E-08
   10   18    0.53568864E-11 -0.12528273E-02
   11   18   -0.48715657E-03 -0.21120378E-08
   12   18    0.79234201E-09 -0.46811509E-04
   13   18   -0.11722668E-09  0.42335817E-03
   14   18    0.25365678E-01  0.99359633E-10
   15   18   -0.52584350E-03 -0.11809194E-08
   16   18    0.73927391E-10 -0.80085840E-03
   17   18    0.13194128E-08 -0.16018240E-03
   18   18    0.23935017E-01  0.22944646E-10

   -1    0   -1
    1    1   -0.94439116E-01  0.64789307E-09
    2    1    0.46611696E-02  0.49804656E-08
    3    1    0.13702861E+00 -0.50911919E-09
    4    1   -0.64198097E-04 -0.59026647E-08
    5    1    0.18865122E-01 -0.16010297E-03
    6    1    0.19725235E-02  0.14539062E-02
    7    1    0.18865074E-01  0.16010242E-03
    8    1    0.19725320E-02 -0.14539108E-02
    9    1   -0.14990225E+00 -0.32237046E-10
   10    1    0.40524882E-02 -0.97683818E-09
   11    1    0.82438484E-01 -0.28588636E-09
   12    1   -0.24886034E-02  0.89102878E-09
   13    1   -0.17352658E+00 -0.34971755E-09
   14    1    0.75738367E-03  0.53259124E-08
   15    1    0.96546900E-08  0.25826231E-03
   16    1    0.22978442E-08  0.73262807E-03
   17    1   -0.30294263E-08  0.30228610E-03
   18    1    0.26689502E-08 -0.53107776E-03
    1    2   -0.46611540E-02 -0.13876767E-07
    2    2   -0.16081493E+00  0.17578574E-08
    3    2   -0.64192004E-04  0.11421841E-07
    4    2    0.14846980E+00 -0.33237983E-08
    5    2   -0.14539147E-02  0.19725277E-02
    6    2   -0.63891522E-02  0.70654505E-03
    7    2   -0.14539037E-02 -0.19725295E-02
    8    2   -0.63891950E-02 -0.70654622E-03
    9    2   -0.46112272E-02 -0.73085997E-08
   10    2   -0.20470641E+00 -0.36545722E-08
   11    2    0.32991468E-02  0.11218071E-07
   12    2    0.13413424E+00  0.16936212E-08
   13    2   -0.20349954E-02 -0.66765470E-08
   14    2   -0.16996292E+00 -0.63163179E-09
   15    2   -0.29297900E-08  0.10145139E-02
   16    2    0.55283447E-08 -0.20991757E-03
   17    2    0.19569597E-08 -0.49303399E-03
   18    2   -0.20590362E-08 -0.80343700E-04
    1    3    0.13702859E+00 -0.60546848E-09
    2    3    0.64188716E-04 -0.10570623E-07
    3    3   -0.94439116E-01  0.12340340E-09
    4    3   -0.46611686E-02  0.11406538E-07
    5    3    0.18865074E-01  0.16010193E-03
    6    3   -0.19725259E-02  0.14539260E-02
    7    3    0.18865097E-01 -0.16010207E-03
    8    3   -0.19725404E-02 -0.14539237E-02
    9    3   -0.14990228E+00 -0.15104351E-09
   10    3   -0.40525020E-02  0.41485015E-09
   11    3    0.82438483E-01  0.25301227E-09
   12    3    0.24886086E-02 -0.27850736E-09
   13    3    0.17352657E+00  0.29619217E-09
   14    3    0.75738662E-03 -0.53539919E-08
   15    3   -0.77761058E-09 -0.25826235E-03
   16    3   -0.25838772E-08  0.73263430E-03
   17    3   -0.20045686E-09  0.30228636E-03
   18    3   -0.11153697E-08  0.53107789E-03
    1    4    0.64194571E-04  0.14916384E-07
    2    4    0.14846979E+00 -0.17178764E-08
    3    4    0.46611592E-02 -0.16958226E-07
    4    4   -0.16081492E+00  0.22036084E-08
    5    4    0.14539212E-02  0.19725198E-02
    6    4   -0.63891969E-02 -0.70654442E-03
    7    4    0.14539077E-02 -0.19725213E-02
    8    4   -0.63891726E-02  0.70654465E-03
    9    4    0.46112415E-02  0.87549420E-08
   10    4   -0.20470643E+00  0.21653491E-08
   11    4   -0.32991515E-02 -0.14286664E-07
   12    4    0.13413424E+00 -0.11775343E-08
   13    4   -0.20349999E-02  0.81050079E-08
   14    4    0.16996292E+00  0.19346882E-09
   15    4    0.51162540E-08  0.10145099E-02
   16    4    0.12443569E-08  0.20991745E-03
   17    4   -0.95329071E-09  0.49303414E-03
   18    4    0.11324008E-09 -0.80344239E-04
    1    5    0.18865096E-01  0.16010283E-03
    2    5    0.14539201E-02  0.19725248E-02
    3    5    0.18865074E-01 -0.16010321E-03
    4    5   -0.14539203E-02  0.19725365E-02
    5    5   -0.94439119E-01 -0.72554074E-09
    6    5    0.21072019E-08  0.46611831E-02
    7    5    0.13702860E+00  0.50335347E-10
    8    5   -0.37105070E-08 -0.64204937E-04
    9    5   -0.14990228E+00 -0.18643506E-08
   10    5   -0.15451971E-08  0.40525014E-02
   11    5    0.82438485E-01  0.16618647E-08
   12    5   -0.10978797E-08 -0.24886124E-02
   13    5    0.75703899E-09 -0.25826200E-03
   14    5    0.73263464E-03 -0.14246911E-08
   15    5   -0.17352657E+00  0.18981042E-09
   16    5   -0.20640388E-08  0.75738496E-03
   17    5   -0.43261952E-10 -0.30228608E-03
   18    5   -0.53107661E-03 -0.25726479E-08
    1    6   -0.19725189E-02  0.14539275E-02
    2    6   -0.63891764E-02 -0.70654410E-03
    3    6    0.19725238E-02  0.14538993E-02
    4    6   -0.63891966E-02  0.70654433E-03
    5    6    0.24774343E-09  0.46611473E-02
    6    6   -0.16081493E+00  0.32335157E-09
    7    6    0.64756969E-08  0.64200034E-04
    8    6    0.14846979E+00  0.37565034E-09
    9    6    0.42638379E-08  0.46112385E-02
   10    6   -0.20470644E+00 -0.40449166E-09
   11    6    0.57378232E-08 -0.32991551E-02
   12    6    0.13413425E+00  0.91269096E-09
   13    6   -0.10145123E-02  0.37612420E-08
   14    6   -0.19529930E-08  0.20991730E-03
   15    6    0.61984585E-08  0.20349925E-02
   16    6   -0.16996292E+00 -0.56428473E-09
   17    6    0.49303682E-03 -0.80124814E-09
   18    6   -0.46349722E-09  0.80344013E-04
    1    7    0.18865074E-01 -0.16010216E-03
    2    7    0.14539060E-02 -0.19725299E-02
    3    7    0.18865123E-01  0.16010227E-03
    4    7   -0.14539159E-02 -0.19725319E-02
    5    7    0.13702861E+00  0.25555497E-09
    6    7   -0.52232823E-09  0.64175935E-04
    7    7   -0.94439117E-01 -0.13249857E-09
    8    7   -0.58824366E-08 -0.46611542E-02
    9    7   -0.14990225E+00  0.13972851E-08
   10    7   -0.11239291E-07 -0.40525012E-02
   11    7    0.82438482E-01 -0.11787775E-08
   12    7    0.49245608E-08  0.24886147E-02
   13    7   -0.94702557E-08  0.25826183E-03
   14    7    0.73262850E-03  0.38855434E-09
   15    7    0.17352658E+00 -0.49479875E-10
   16    7    0.36570366E-08  0.75738570E-03
   17    7   -0.30245466E-08 -0.30228604E-03
   18    7    0.53107701E-03  0.15156593E-08
    1    8   -0.19725268E-02 -0.14539295E-02
    2    8   -0.63891958E-02  0.70654362E-03
    3    8    0.19725320E-02 -0.14539009E-02
    4    8   -0.63891494E-02 -0.70654527E-03
    5    8    0.70898012E-08 -0.64183698E-04
    6    8    0.14846980E+00  0.14464974E-09
    7    8   -0.56620904E-08 -0.46611664E-02
    8    8   -0.16081492E+00 -0.16472875E-08
    9    8    0.12444937E-07 -0.46112445E-02
   10    8   -0.20470641E+00 -0.11068149E-08
   11    8   -0.12727449E-07  0.32991543E-02
   12    8    0.13413424E+00 -0.36054007E-09
   13    8   -0.10145111E-02 -0.36595151E-08
   14    8   -0.57466979E-08 -0.20991783E-03
   15    8   -0.54137189E-08  0.20350016E-02
   16    8    0.16996292E+00  0.75358314E-09
   17    8   -0.49303748E-03 -0.94754951E-09
   18    8   -0.14225767E-08  0.80344398E-04
    1    9    0.82438483E-01 -0.29820318E-09
    2    9   -0.32991255E-02  0.32615003E-08
    3    9    0.82438483E-01  0.14709733E-09
    4    9    0.32991317E-02 -0.16009877E-08
    5    9    0.82438484E-01  0.13503977E-09
    6    9   -0.19560393E-09 -0.32991272E-02
    7    9    0.82438482E-01  0.13631951E-09
    8    9    0.36007650E-08  0.32991292E-02
    9    9    0.73065997E+00 -0.15372962E-08
   10    9    0.67654397E-08  0.61024581E-09
   11    9   -0.24891909E+00  0.59992349E-09
   12    9   -0.10839426E-08  0.10925794E-08
   13    9    0.24595917E-09 -0.17014511E-10
   14    9   -0.36049279E-02  0.47456843E-08
   15    9   -0.26800618E-09 -0.11735741E-10
   16    9   -0.37874527E-08 -0.36049298E-02
   17    9   -0.67146856E-10  0.62987201E-10
   18    9    0.11283407E-08  0.45876439E-09
    1   10    0.24886108E-02  0.54343036E-08
    2   10    0.13413425E+00 -0.10358345E-08
    3   10   -0.24886161E-02 -0.52767079E-08
    4   10    0.13413424E+00  0.80000629E-09
    5   10    0.17597437E-08 -0.24886155E-02
    6   10    0.13413424E+00 -0.79552999E-09
    7   10   -0.74701586E-08  0.24886122E-02
    8   10    0.13413424E+00  0.23904403E-09
    9   10   -0.99863175E-08 -0.69104335E-08
   10   10    0.71791700E+00 -0.20952337E-08
   11   10    0.51286846E-08  0.37706161E-08
   12   10   -0.24451664E+00  0.14395988E-08
   13   10    0.66085174E-02  0.22086011E-08
   14   10    0.27043121E-09  0.55442291E-09
   15   10    0.31761555E-08 -0.66085179E-02
   16   10    0.32062982E-09 -0.35673575E-09
   17   10    0.37709226E-10  0.35124694E-08
   18   10    0.79636469E-10 -0.59769148E-10
    1   11   -0.14990228E+00  0.67751421E-09
    2   11    0.46112090E-02  0.25615940E-08
    3   11   -0.14990225E+00 -0.61818003E-09
    4   11   -0.46112258E-02  0.16374472E-09
    5   11   -0.14990225E+00  0.47668805E-09
    6   11   -0.67432103E-08  0.46112123E-02
    7   11   -0.14990227E+00 -0.86877844E-09
    8   11   -0.55234383E-08 -0.46112155E-02
    9   11   -0.29337040E+01  0.12268371E-08
   10   11   -0.23581579E-07  0.18763416E-08
   11   11    0.73065997E+00 -0.85009166E-09
   12   11    0.86905980E-08 -0.21582807E-08
   13   11   -0.25221124E-08 -0.27156819E-10
   14   11    0.90365272E-02 -0.25907132E-08
   15   11    0.22691885E-08  0.34093658E-10
   16   11    0.15975681E-08  0.90365294E-02
   17   11   -0.50541885E-08 -0.10666438E-09
   18   11    0.14469613E-09  0.12336766E-08
    1   12   -0.40524852E-02 -0.58277173E-08
    2   12   -0.20470644E+00  0.12821361E-08
    3   12    0.40524985E-02 -0.11396963E-08
    4   12   -0.20470641E+00 -0.22539166E-08
    5   12    0.67496968E-08  0.40524891E-02
    6   12   -0.20470641E+00  0.63494618E-09
    7   12    0.81074089E-08 -0.40524890E-02
    8   12   -0.20470643E+00 -0.88747623E-09
    9   12    0.22737762E-07  0.68468221E-09
   10   12   -0.24674434E+01  0.37711129E-09
   11   12   -0.95417928E-08 -0.44531541E-08
   12   12    0.71791700E+00 -0.95649366E-09
   13   12   -0.12232216E-01 -0.25339426E-08
   14   12   -0.33897357E-08 -0.85438820E-09
   15   12   -0.22141550E-08  0.12232215E-01
   16   12    0.16836379E-08  0.38224158E-09
   17   12   -0.15416687E-08 -0.24580308E-08
   18   12   -0.36722993E-08  0.29974092E-09
    1   13    0.17352658E+00  0.19837731E-09
    2   13   -0.20349968E-02  0.59973181E-09
    3   13   -0.17352658E+00 -0.12949320E-09
    4   13   -0.20350048E-02  0.10853713E-08
    5   13   -0.93043831E-08 -0.25826220E-03
    6   13   -0.10145161E-02  0.32431998E-08
    7   13    0.43838558E-09  0.25826219E-03
    8   13   -0.10145132E-02 -0.28880787E-08
    9   13   -0.22603443E-08 -0.11757403E-09
   10   13   -0.12232222E-01  0.36258022E-08
   11   13   -0.12270600E-09  0.24668255E-10
   12   13    0.66085245E-02 -0.24088781E-08
   13   13    0.20730356E+00 -0.72094442E-10
   14   13    0.13980404E-08  0.27268348E-08
   15   13   -0.29559461E-08 -0.40646224E-03
   16   13   -0.15619295E-09  0.13804586E-09
   17   13    0.46293700E-08 -0.97238054E-10
   18   13    0.29641408E-09  0.82805286E-03
    1   14    0.75737765E-03  0.25640653E-08
    2   14    0.16996292E+00  0.81003179E-09
    3   14    0.75738591E-03 -0.45691725E-08
    4   14   -0.16996292E+00 -0.10616896E-08
    5   14    0.73263287E-03 -0.26448178E-08
    6   14   -0.90925967E-08  0.20991780E-03
    7   14    0.73262878E-03  0.14251895E-08
    8   14    0.22801268E-08 -0.20991826E-03
    9   14    0.90365268E-02  0.30181081E-08
   10   14   -0.14506402E-08 -0.23253096E-09
   11   14   -0.36049232E-02 -0.93694785E-10
   12   14   -0.40716417E-09  0.92408287E-10
   13   14   -0.26829853E-08 -0.84511883E-09
   14   14    0.18723867E+00  0.52269633E-10
   15   14    0.20080819E-08  0.26845313E-08
   16   14   -0.25738084E-08  0.27152733E-03
   17   14   -0.19951925E-08  0.78151603E-03
   18   14    0.40797962E-08  0.23826811E-10
    1   15   -0.34099163E-09  0.25826181E-03
    2   15   -0.32378611E-08 -0.10145116E-02
    3   15    0.93556804E-08 -0.25826184E-03
    4   15    0.13806174E-08 -0.10145184E-02
    5   15    0.17352658E+00  0.46258692E-09
    6   15    0.28394915E-08 -0.20350078E-02
    7   15   -0.17352658E+00 -0.46506984E-09
    8   15   -0.32867978E-08 -0.20349930E-02
    9   15    0.33515342E-08  0.77774236E-09
   10   15   -0.42585679E-08 -0.12232223E-01
   11   15   -0.27021556E-09 -0.52600733E-09
   12   15    0.20959699E-08  0.66085243E-02
   13   15   -0.28871053E-08  0.40646209E-03
   14   15   -0.28089190E-08 -0.12806531E-08
   15   15    0.20730356E+00  0.12796630E-09
   16   15    0.22884813E-08  0.14397789E-08
   17   15   -0.47048712E-08  0.12013892E-09
   18   15    0.82805158E-03  0.32185354E-09
    1   16    0.33375684E-08 -0.73263330E-03
    2   16   -0.10220049E-08 -0.20991742E-03
    3   16   -0.31248366E-08 -0.73262842E-03
    4   16    0.89440230E-08  0.20991783E-03
    5   16   -0.30463570E-08 -0.75737740E-03
    6   16    0.16996292E+00  0.32333937E-09
    7   16   -0.17899017E-09 -0.75738770E-03
    8   16   -0.16996292E+00  0.29455526E-09
    9   16    0.12951593E-08 -0.90365307E-02
   10   16    0.37484249E-08  0.47010684E-09
   11   16    0.13226115E-08  0.36049251E-02
   12   16   -0.69732094E-09  0.19844079E-10
   13   16   -0.18310184E-09  0.19322126E-09
   14   16   -0.25282177E-08 -0.27152724E-03
   15   16   -0.13904275E-08 -0.17217068E-08
   16   16    0.18723867E+00  0.21523838E-09
   17   16   -0.78151524E-03 -0.22672341E-08
   18   16   -0.36953980E-08 -0.94393636E-10
    1   17    0.96486962E-10 -0.30228650E-03
    2   17    0.41128779E-08 -0.49302697E-03
    3   17   -0.35127048E-08 -0.30228584E-03
    4   17   -0.48878306E-08  0.49302614E-03
    5   17   -0.37123253E-08  0.30228641E-03
    6   17   -0.49302899E-03 -0.65409031E-08
    7   17    0.97959940E-10  0.30228580E-03
    8   17    0.49303062E-03  0.59085879E-08
    9   17   -0.61897946E-08 -0.53950189E-09
   10   17   -0.45160427E-09  0.89811512E-09
   11   17    0.58075963E-09  0.16370842E-09
   12   17    0.19643729E-08  0.19370628E-09
   13   17    0.48764219E-08 -0.20911158E-10
   14   17    0.33021597E-09 -0.78151021E-03
   15   17   -0.48510926E-08  0.42367759E-10
   16   17   -0.78151030E-03  0.12008341E-09
   17   17   -0.11325633E+00 -0.26146207E-09
   18   17    0.66234535E-10 -0.57910159E-09
    1   18   -0.29460374E-08 -0.53108248E-03
    2   18    0.16047611E-09  0.80344312E-04
    3   18    0.16058540E-08  0.53108108E-03
    4   18   -0.56499476E-09  0.80343792E-04
    5   18    0.53108177E-03 -0.17428058E-08
    6   18   -0.88006040E-09 -0.80344334E-04
    7   18   -0.53108161E-03  0.12611214E-08
    8   18    0.43870265E-09 -0.80343946E-04
    9   18   -0.16638322E-08 -0.28776067E-08
   10   18   -0.56178607E-08 -0.26256779E-09
   11   18    0.21971310E-10  0.35038466E-08
   12   18    0.10186876E-08  0.81540272E-10
   13   18    0.77584291E-09 -0.82805353E-03
   14   18    0.34977821E-08 -0.91934311E-10
   15   18    0.82805351E-03  0.98663972E-09
   16   18   -0.38577512E-08 -0.37805399E-10
   17   18   -0.63241279E-09 -0.48222586E-09
   18   18   -0.94922104E-01 -0.13645163E-09

   -1    0    0
    1    1    0.45661924E+00 -0.42576931E-03
    2    1   -0.10681753E-02  0.43621145E-04
    3    1   -0.11856602E+00 -0.33668351E-09
    4    1   -0.32842591E-04 -0.21414689E-04
    5    1    0.71728167E+00 -0.57201901E-03
    6    1   -0.20857122E-02 -0.19838132E-02
    7    1   -0.23347257E+00  0.81089355E-03
    8    1    0.12430449E-02 -0.18335332E-03
    9    1    0.71727681E+00 -0.14781002E-02
   10    1   -0.53629032E-03  0.19667274E-02
   11    1   -0.23347441E+00  0.99159418E-03
   12    1    0.98304213E-03  0.21975351E-03
   13    1    0.59599342E-01 -0.34755934E-02
   14    1   -0.34816405E-02  0.92713463E-04
   15    1    0.12619781E+00 -0.21298891E-02
   16    1   -0.20545739E-02 -0.50918750E-05
   17    1    0.59609081E-01 -0.40452871E-02
   18    1   -0.38072733E-02 -0.89636215E-04
    1    2    0.10814916E-03 -0.47668019E-04
    2    2    0.40114709E+00  0.33452447E-03
    3    2   -0.32829809E-04  0.21423873E-04
    4    2   -0.37016681E-01  0.15164666E-08
    5    2    0.43676163E-03 -0.24126418E-02
    6    2    0.69355663E+00 -0.22870839E-03
    7    2   -0.18335486E-03 -0.12430088E-02
    8    2   -0.22303136E+00 -0.12150431E-02
    9    2    0.22883066E-04  0.24789526E-02
   10    2    0.69356170E+00  0.97390845E-03
   11    2   -0.10022805E-02  0.12081485E-02
   12    2   -0.22302446E+00 -0.64237985E-03
   13    2    0.63636782E-02 -0.67033305E-04
   14    2    0.49526619E-01  0.39024449E-02
   15    2    0.21186702E-02  0.69630605E-04
   16    2    0.11109844E+00  0.20498905E-02
   17    2    0.44877479E-02  0.61368735E-04
   18    2    0.49526144E-01  0.41742830E-02
    1    3   -0.15588972E+01  0.65833500E-09
    2    3    0.19820686E-03 -0.82989150E-04
    3    3    0.45661925E+00  0.42576823E-03
    4    3    0.10815164E-03  0.47653449E-04
    5    3   -0.25361758E+01 -0.10376756E-01
    6    3   -0.72035268E-02  0.71016604E-02
    7    3    0.71728167E+00 -0.57201855E-03
    8    3    0.24125998E-02  0.43675383E-03
    9    3   -0.25361573E+01 -0.67243066E-02
   10    3   -0.10784666E-01 -0.71023693E-02
   11    3    0.71727089E+00  0.14695190E-02
   12    3   -0.20909715E-05 -0.46463562E-03
   13    3   -0.33283230E+00  0.53870869E-02
   14    3    0.33326539E-02 -0.24644752E-02
   15    3   -0.78907537E+00 -0.16580390E-02
   16    3   -0.13232899E-02 -0.23752076E-05
   17    3   -0.33283927E+00  0.33625402E-02
   18    3    0.56573195E-02  0.24620461E-02
    1    4    0.19822085E-03  0.82992910E-04
    2    4   -0.15969645E+01  0.38524055E-08
    3    4   -0.10681820E-02 -0.43623085E-04
    4    4    0.40114709E+00 -0.33453049E-03
    5    4    0.71016788E-02  0.72035535E-02
    6    4   -0.24544218E+01  0.11280862E-01
    7    4   -0.19838184E-02  0.20856767E-02
    8    4    0.69355663E+00 -0.22870508E-03
    9    4    0.10756552E-01 -0.72288258E-02
   10    4   -0.24544165E+01  0.67904369E-02
   11    4    0.56546014E-03 -0.20681858E-02
   12    4    0.69356781E+00 -0.18254539E-02
   13    4   -0.49114315E-02 -0.26591517E-02
   14    4   -0.22562775E+00 -0.57104419E-02
   15    4    0.17457380E-02 -0.34981184E-04
   16    4   -0.61916783E+00  0.12433271E-02
   17    4   -0.63084058E-02  0.26685671E-02
   18    4   -0.22568823E+00 -0.38006251E-02
    1    5    0.71728166E+00  0.57201792E-03
    2    5   -0.19838200E-02 -0.20857139E-02
    3    5   -0.23347257E+00 -0.81089302E-03
    4    5   -0.18334278E-03  0.12430429E-02
    5    5    0.45661924E+00  0.42576860E-03
    6    5    0.43614689E-04 -0.10681746E-02
    7    5   -0.11856602E+00  0.40598322E-09
    8    5   -0.21416953E-04 -0.32841910E-04
    9    5    0.71727680E+00  0.14780971E-02
   10    5    0.19667289E-02 -0.53629868E-03
   11    5   -0.23347441E+00 -0.99159240E-03
   12    5    0.21974949E-03  0.98304550E-03
   13    5    0.12619781E+00  0.21298891E-02
   14    5   -0.50856453E-05 -0.20545782E-02
   15    5    0.59599341E-01  0.34755927E-02
   16    5    0.92707022E-04 -0.34816437E-02
   17    5    0.59609069E-01  0.40452872E-02
   18    5   -0.89637240E-04 -0.38072762E-02
    1    6    0.24126401E-02 -0.43673214E-03
    2    6    0.69355664E+00  0.22870189E-03
    3    6    0.12430124E-02  0.18333780E-03
    4    6   -0.22303137E+00  0.12150486E-02
    5    6    0.47654328E-04 -0.10815522E-03
    6    6    0.40114709E+00 -0.33452876E-03
    7    6   -0.21408161E-04  0.32840353E-04
    8    6   -0.37016676E-01  0.50261423E-09
    9    6   -0.24789585E-02 -0.22863967E-04
   10    6    0.69356171E+00 -0.97390847E-03
   11    6   -0.12081418E-02  0.10022571E-02
   12    6   -0.22302447E+00  0.64237815E-03
   13    6   -0.69622029E-04 -0.21186647E-02
   14    6    0.11109844E+00 -0.20498903E-02
   15    6    0.67037183E-04 -0.63636814E-02
   16    6    0.49526618E-01 -0.39024464E-02
   17    6   -0.61356395E-04 -0.44877514E-02
   18    6    0.49526132E-01 -0.41742829E-02
    1    7   -0.25361758E+01  0.10376756E-01
    2    7    0.71016633E-02 -0.72035093E-02
    3    7    0.71728167E+00  0.57201798E-03
    4    7    0.43674414E-03  0.24125960E-02
    5    7   -0.15588971E+01  0.41968837E-09
    6    7   -0.82983510E-04  0.19820065E-03
    7    7    0.45661924E+00 -0.42576914E-03
    8    7    0.47647698E-04  0.10815960E-03
    9    7   -0.25361573E+01  0.67243092E-02
   10    7   -0.71023820E-02 -0.10784656E-01
   11    7    0.71727089E+00 -0.14695211E-02
   12    7   -0.46462584E-03 -0.20926431E-05
   13    7   -0.78907536E+00  0.16580389E-02
   14    7   -0.23833069E-05 -0.13232806E-02
   15    7   -0.33283231E+00 -0.53870859E-02
   16    7   -0.24644760E-02  0.33326587E-02
   17    7   -0.33283926E+00 -0.33625406E-02
   18    7    0.24620465E-02  0.56573223E-02
    1    8   -0.72035381E-02 -0.71017072E-02
    2    8   -0.24544219E+01 -0.11280857E-01
    3    8   -0.20856857E-02  0.19838383E-02
    4    8    0.69355665E+00  0.22870007E-03
    5    8   -0.82974619E-04 -0.19821642E-03
    6    8   -0.15969644E+01 -0.14919715E-09
    7    8    0.43608027E-04  0.10681728E-02
    8    8    0.40114709E+00  0.33452871E-03
    9    8    0.72288300E-02 -0.10756580E-01
   10    8   -0.24544165E+01 -0.67904369E-02
   11    8    0.20681856E-02 -0.56543018E-03
   12    8    0.69356782E+00  0.18254537E-02
   13    8    0.34976832E-04 -0.17457475E-02
   14    8   -0.61916783E+00 -0.12433276E-02
   15    8    0.26591442E-02  0.49114301E-02
   16    8   -0.22562775E+00  0.57104435E-02
   17    8   -0.26685761E-02  0.63084063E-02
   18    8   -0.22568822E+00  0.38006251E-02
    1    9    0.71727089E+00 -0.14695210E-02
    2    9    0.56542748E-03  0.20681682E-02
    3    9   -0.23347441E+00 -0.99159300E-03
    4    9   -0.10022543E-02 -0.12081226E-02
    5    9    0.71727089E+00  0.14695205E-02
    6    9    0.20681502E-02  0.56544074E-03
    7    9   -0.23347441E+00  0.99159278E-03
    8    9   -0.12081118E-02 -0.10022704E-02
    9    9    0.45659767E+00 -0.19471913E-09
   10    9    0.11180937E-02  0.11181014E-02
   11    9   -0.11857378E+00 -0.12503316E-09
   12    9   -0.17980733E-04 -0.17988729E-04
   13    9    0.59597881E-01  0.57846929E-04
   14    9    0.34956115E-02  0.38010991E-02
   15    9    0.59597891E-01 -0.57847946E-04
   16    9    0.38011014E-02  0.34956038E-02
   17    9    0.12619720E+00 -0.31818046E-09
   18    9    0.20455836E-02  0.20455847E-02
    1   10   -0.21123975E-05  0.46466506E-03
    2   10    0.69356782E+00  0.18254523E-02
    3   10    0.98304755E-03 -0.21977348E-03
    4   10   -0.22302446E+00  0.64238147E-03
    5   10   -0.46466071E-03  0.21085572E-05
    6   10    0.69356782E+00 -0.18254502E-02
    7   10    0.21977290E-03 -0.98304380E-03
    8   10   -0.22302447E+00 -0.64238186E-03
    9   10   -0.66189858E-04  0.66198961E-04
   10   10    0.40119082E+00  0.23769471E-08
   11   10   -0.17978763E-04  0.17977010E-04
   12   10   -0.36968576E-01 -0.12891300E-08
   13   10   -0.63062583E-02  0.45139425E-02
   14   10    0.49524873E-01  0.52737966E-04
   15   10   -0.45139395E-02  0.63062537E-02
   16   10    0.49524882E-01 -0.52737699E-04
   17   10   -0.21304484E-02  0.21304534E-02
   18   10    0.11111773E+00  0.31688972E-09
    1   11   -0.25361573E+01  0.67243084E-02
    2   11    0.10756559E-01  0.72288549E-02
    3   11    0.71727681E+00  0.14780979E-02
    4   11    0.22866345E-04 -0.24789917E-02
    5   11   -0.25361573E+01 -0.67243083E-02
    6   11    0.72288588E-02  0.10756540E-01
    7   11    0.71727681E+00 -0.14780979E-02
    8   11   -0.24789934E-02  0.22888371E-04
    9   11   -0.15588757E+01 -0.11665000E-09
   10   11   -0.22737190E-03 -0.22737322E-03
   11   11    0.45659767E+00  0.22513769E-09
   12   11   -0.66179481E-04 -0.66174430E-04
   13   11   -0.33283389E+00  0.24158321E-02
   14   11   -0.33499267E-02 -0.56488032E-02
   15   11   -0.33283390E+00 -0.24158314E-02
   16   11   -0.56488083E-02 -0.33499193E-02
   17   11   -0.78906377E+00 -0.51905589E-10
   18   11    0.13409873E-02  0.13409865E-02
    1   12   -0.10784629E-01  0.71023167E-02
    2   12   -0.24544165E+01 -0.67904348E-02
    3   12   -0.53629176E-03 -0.19666989E-02
    4   12    0.69356170E+00 -0.97391240E-03
    5   12   -0.71023203E-02  0.10784633E-01
    6   12   -0.24544165E+01  0.67904318E-02
    7   12    0.19667025E-02  0.53629045E-03
    8   12    0.69356170E+00  0.97391243E-03
    9   12   -0.22735198E-03  0.22733532E-03
   10   12   -0.15970532E+01 -0.26884480E-08
   11   12    0.11180959E-02 -0.11180854E-02
   12   12    0.40119082E+00  0.28140079E-09
   13   12    0.48664019E-02 -0.63304038E-02
   14   12   -0.22563063E+00 -0.24428940E-02
   15   12    0.63303968E-02 -0.48663963E-02
   16   12   -0.22563064E+00  0.24428933E-02
   17   12   -0.17317545E-02  0.17317495E-02
   18   12   -0.61925681E+00 -0.47490688E-09
    1   13   -0.33283230E+00 -0.53870860E-02
    2   13   -0.49114143E-02  0.26591602E-02
    3   13    0.59599340E-01  0.34755928E-02
    4   13    0.63636706E-02  0.67027503E-04
    5   13   -0.78907536E+00 -0.16580387E-02
    6   13    0.34979375E-04  0.17457366E-02
    7   13    0.12619781E+00 -0.21298892E-02
    8   13   -0.69622338E-04  0.21186692E-02
    9   13   -0.33283388E+00 -0.24158315E-02
   10   13    0.48664013E-02  0.63303997E-02
   11   13    0.59597881E-01 -0.57847808E-04
   12   13   -0.63062544E-02 -0.45139423E-02
   13   13   -0.17170065E+00 -0.78590578E-10
   14   13    0.63612615E-06 -0.25348055E-04
   15   13   -0.27830788E+00 -0.61600055E-03
   16   13   -0.52578001E-03  0.15854968E-03
   17   13   -0.27830352E+00 -0.29056937E-03
   18   13    0.51603717E-03  0.62726639E-03
    1   14    0.33326602E-02  0.24644795E-02
    2   14   -0.22562776E+00  0.57104437E-02
    3   14   -0.34816415E-02 -0.92715167E-04
    4   14    0.49526623E-01 -0.39024464E-02
    5   14   -0.23664091E-05  0.13232816E-02
    6   14   -0.61916784E+00  0.12433269E-02
    7   14   -0.50901929E-05  0.20545800E-02
    8   14    0.11109845E+00  0.20498909E-02
    9   14   -0.33499201E-02  0.56488104E-02
   10   14   -0.22563064E+00  0.24428934E-02
   11   14    0.34956092E-02 -0.38010975E-02
   12   14    0.49524877E-01 -0.52737536E-04
   13   14    0.63425138E-06  0.25350393E-04
   14   14   -0.14699344E+00 -0.37979286E-10
   15   14    0.15855542E-03  0.52578111E-03
   16   14   -0.23593923E+00  0.55874257E-03
   17   14   -0.16781092E-03  0.64425066E-03
   18   14   -0.23594936E+00  0.19909981E-03
    1   15   -0.78907536E+00  0.16580387E-02
    2   15    0.17457365E-02  0.34988419E-04
    3   15    0.12619781E+00  0.21298892E-02
    4   15    0.21186715E-02 -0.69629839E-04
    5   15   -0.33283230E+00  0.53870868E-02
    6   15    0.26591573E-02 -0.49114257E-02
    7   15    0.59599340E-01 -0.34755932E-02
    8   15    0.67031568E-04  0.63636800E-02
    9   15   -0.33283389E+00  0.24158314E-02
   10   15    0.63303997E-02  0.48664013E-02
   11   15    0.59597890E-01  0.57847829E-04
   12   15   -0.45139422E-02 -0.63062535E-02
   13   15   -0.27830788E+00  0.61600031E-03
   14   15    0.15854973E-03 -0.52577761E-03
   15   15   -0.17170066E+00  0.18902691E-09
   16   15   -0.25348703E-04  0.63581365E-06
   17   15   -0.27830352E+00  0.29056904E-03
   18   15    0.62726701E-03  0.51603551E-03
    1   16   -0.13232788E-02  0.23637724E-05
    2   16   -0.61916784E+00 -0.12433272E-02
    3   16   -0.20545774E-02  0.50953528E-05
    4   16    0.11109845E+00 -0.20498906E-02
    5   16   -0.24644734E-02 -0.33326625E-02
    6   16   -0.22562776E+00 -0.57104423E-02
    7   16    0.92711063E-04  0.34816412E-02
    8   16    0.49526624E-01  0.39024454E-02
    9   16   -0.56488039E-02  0.33499113E-02
   10   16   -0.22563065E+00 -0.24428934E-02
   11   16    0.38010954E-02 -0.34956040E-02
   12   16    0.49524888E-01  0.52737324E-04
   13   16   -0.52577612E-03 -0.15855712E-03
   14   16   -0.23593923E+00 -0.55874310E-03
   15   16   -0.25351785E-04 -0.63729664E-06
   16   16   -0.14699344E+00 -0.17223556E-10
   17   16   -0.64424563E-03  0.16780974E-03
   18   16   -0.23594936E+00 -0.19909979E-03
    1   17   -0.33283927E+00 -0.33625402E-02
    2   17   -0.63084059E-02 -0.26685571E-02
    3   17    0.59609079E-01  0.40452870E-02
    4   17    0.44877460E-02 -0.61371074E-04
    5   17   -0.33283926E+00  0.33625410E-02
    6   17   -0.26685710E-02 -0.63084053E-02
    7   17    0.59609068E-01 -0.40452873E-02
    8   17   -0.61362704E-04  0.44877479E-02
    9   17   -0.78906376E+00 -0.31101951E-09
   10   17   -0.17317569E-02 -0.17317526E-02
   11   17    0.12619720E+00  0.96442660E-10
   12   17   -0.21304501E-02 -0.21304496E-02
   13   17   -0.27830352E+00  0.29056889E-03
   14   17   -0.16781805E-03 -0.64424627E-03
   15   17   -0.27830352E+00 -0.29056915E-03
   16   17   -0.64425062E-03 -0.16781561E-03
   17   17   -0.17162314E+00 -0.18282287E-09
   18   17    0.26847137E-04  0.26848881E-04
    1   18    0.56573104E-02 -0.24620428E-02
    2   18   -0.22568824E+00  0.38006247E-02
    3   18   -0.38072727E-02  0.89634908E-04
    4   18    0.49526148E-01 -0.41742827E-02
    5   18    0.24620438E-02 -0.56573141E-02
    6   18   -0.22568823E+00 -0.38006252E-02
    7   18   -0.89639969E-04  0.38072752E-02
    8   18    0.49526139E-01  0.41742829E-02
    9   18    0.13409762E-02 -0.13409842E-02
   10   18   -0.61925681E+00 -0.38281216E-09
   11   18    0.20455864E-02 -0.20455824E-02
   12   18    0.11111773E+00  0.28670542E-10
   13   18    0.51603003E-03 -0.62726657E-03
   14   18   -0.23594936E+00 -0.19909965E-03
   15   18    0.62726542E-03 -0.51603058E-03
   16   18   -0.23594936E+00  0.19909966E-03
   17   18    0.26845682E-04 -0.26844922E-04
   18   18   -0.14701324E+00  0.18602897E-11

   -1    0    1
    1    1    0.18802003E-02  0.29847704E-03
    2    1    0.17939974E-08  0.66559658E-09
    3    1   -0.67202964E-01 -0.51595080E-09
    4    1   -0.22671593E-08 -0.86409435E-09
    5    1    0.72441933E-02  0.83781584E-03
    6    1   -0.10432286E-07 -0.24153452E-08
    7    1   -0.60668274E-01 -0.26088152E-03
    8    1    0.95800444E-08 -0.29318191E-08
    9    1   -0.64368278E-01  0.39215593E-03
   10    1   -0.32853088E-03 -0.69568560E-03
   11    1   -0.64368283E-01  0.39215443E-03
   12    1    0.32853247E-03  0.69568851E-03
   13    1   -0.94196174E-09 -0.13584098E-09
   14    1    0.74246797E-03 -0.36262926E-03
   15    1    0.15813476E-08 -0.28420042E-10
   16    1    0.47408052E-03  0.20515051E-03
   17    1    0.27579994E-01  0.43728616E-03
   18    1   -0.33661667E-09  0.10492459E-08
    1    2   -0.46096760E-08 -0.95337176E-09
    2    2    0.99179991E-02 -0.22941865E-03
    3    2    0.33883155E-08 -0.10193129E-08
    4    2   -0.64277488E-01 -0.83489117E-09
    5    2   -0.25292974E-08  0.20005452E-08
    6    2    0.28069701E-01 -0.67832109E-03
    7    2   -0.49778593E-08  0.48532491E-08
    8    2   -0.75928969E-01  0.33450502E-03
    9    2    0.81419722E-03 -0.38034475E-03
   10    2   -0.46594043E-01 -0.25890120E-03
   11    2   -0.81419140E-03  0.38034599E-03
   12    2   -0.46594048E-01 -0.25890188E-03
   13    2   -0.13300792E-02 -0.26801185E-03
   14    2   -0.21299160E-08  0.51973822E-09
   15    2   -0.86572128E-03 -0.16007727E-04
   16    2    0.10329330E-08  0.82029772E-09
   17    2   -0.79108099E-08  0.23396542E-08
   18    2    0.34249622E-01 -0.41363135E-03
    1    3   -0.12189257E+00 -0.28233458E-10
    2    3   -0.47925464E-08 -0.39305842E-08
    3    3    0.18802006E-02 -0.29847654E-03
    4    3    0.57436501E-08  0.49715812E-08
    5    3   -0.16106152E+00  0.11514861E-03
    6    3    0.33439391E-08  0.81547093E-08
    7    3    0.72441935E-02  0.83781521E-03
    8    3   -0.33975581E-08 -0.18170181E-08
    9    3   -0.78299495E-01 -0.55319205E-03
   10    3   -0.31053385E-03 -0.95099153E-04
   11    3   -0.78299493E-01 -0.55319104E-03
   12    3    0.31053419E-03  0.95097283E-04
   13    3   -0.55740872E-09  0.18791131E-09
   14    3    0.96769501E-03  0.83096587E-03
   15    3   -0.62382600E-09  0.35552378E-11
   16    3    0.91277059E-03  0.14563285E-02
   17    3   -0.34594137E-01 -0.74902927E-03
   18    3    0.24183983E-08 -0.91917274E-09
    1    4    0.24375875E-08  0.53553247E-08
    2    4   -0.15991639E+00 -0.19121281E-09
    3    4   -0.61038735E-09 -0.41558821E-08
    4    4    0.99179972E-02  0.22941946E-03
    5    4   -0.15320823E-08 -0.69955149E-08
    6    4   -0.21544276E+00  0.36372904E-07
    7    4    0.90165976E-08 -0.15727259E-08
    8    4    0.28069700E-01 -0.67832171E-03
    9    4   -0.22735508E-03 -0.18128583E-03
   10    4   -0.68846233E-01  0.39148322E-03
   11    4    0.22735222E-03  0.18128538E-03
   12    4   -0.68846228E-01  0.39148354E-03
   13    4    0.71418836E-03  0.11021634E-02
   14    4   -0.14325601E-09 -0.17891207E-09
   15    4   -0.66908166E-03  0.14761242E-02
   16    4   -0.24226347E-10 -0.82484736E-09
   17    4    0.87208582E-08 -0.14512843E-08
   18    4   -0.59557116E-01  0.56652960E-03
    1    5    0.72441928E-02 -0.83781632E-03
    2    5   -0.60563128E-08 -0.10984348E-07
    3    5   -0.60668273E-01  0.26088169E-03
    4    5    0.21571923E-08  0.10409428E-07
    5    5    0.18802019E-02 -0.29847680E-03
    6    5    0.65837292E-09  0.73653888E-08
    7    5   -0.67202965E-01 -0.19559675E-09
    8    5   -0.41350116E-08 -0.38388887E-08
    9    5   -0.64368280E-01 -0.39215443E-03
   10    5   -0.69568679E-03 -0.32852383E-03
   11    5   -0.64368280E-01 -0.39215521E-03
   12    5    0.69568902E-03  0.32852403E-03
   13    5   -0.12457695E-08 -0.14121557E-09
   14    5    0.20515570E-03  0.47407882E-03
   15    5    0.74464872E-09  0.20622457E-09
   16    5   -0.36263262E-03  0.74246917E-03
   17    5    0.27579995E-01 -0.43728613E-03
   18    5   -0.44887779E-09 -0.19539427E-08
    1    6   -0.20534484E-08  0.10493374E-07
    2    6    0.28069702E-01  0.67831918E-03
    3    6   -0.59811772E-08 -0.44242312E-08
    4    6   -0.75928970E-01 -0.33450312E-03
    5    6   -0.85274945E-08  0.22610374E-08
    6    6    0.99179992E-02  0.22942005E-03
    7    6    0.38546515E-08 -0.43769181E-08
    8    6   -0.64277488E-01 -0.80374896E-09
    9    6    0.38035179E-03 -0.81418814E-03
   10    6   -0.46594048E-01  0.25890201E-03
   11    6   -0.38034439E-03  0.81418638E-03
   12    6   -0.46594042E-01  0.25890205E-03
   13    6    0.16010149E-04  0.86572376E-03
   14    6   -0.13019199E-08  0.16734283E-09
   15    6    0.26801622E-03  0.13300725E-02
   16    6    0.38985627E-09  0.50624237E-09
   17    6   -0.91495270E-09  0.15094831E-08
   18    6    0.34249622E-01  0.41363078E-03
    1    7   -0.16106152E+00 -0.11514776E-03
    2    7   -0.14867486E-08  0.64343411E-08
    3    7    0.72441921E-02 -0.83781583E-03
    4    7    0.52393895E-08 -0.75261672E-08
    5    7   -0.12189257E+00  0.64690729E-09
    6    7   -0.32163915E-08 -0.10095774E-07
    7    7    0.18802021E-02  0.29847619E-03
    8    7    0.65657611E-08  0.79654885E-08
    9    7   -0.78299493E-01  0.55319151E-03
   10    7   -0.95100603E-04 -0.31054084E-03
   11    7   -0.78299495E-01  0.55319106E-03
   12    7    0.95099351E-04  0.31054027E-03
   13    7    0.91784540E-09  0.25336570E-09
   14    7    0.14563235E-02  0.91277254E-03
   15    7    0.95948848E-09 -0.13115917E-09
   16    7    0.83096949E-03  0.96769050E-03
   17    7   -0.34594137E-01  0.74902940E-03
   18    7    0.17112557E-08  0.27701358E-08
    1    8    0.30109260E-08 -0.91925612E-08
    2    8   -0.21544276E+00 -0.34510674E-07
    3    8    0.59077300E-08  0.56028517E-08
    4    8    0.28069699E-01  0.67831946E-03
    5    8    0.67418192E-08 -0.24079604E-08
    6    8   -0.15991639E+00 -0.29904412E-09
    7    8   -0.21245257E-08  0.43814414E-08
    8    8    0.99179983E-02 -0.22941897E-03
    9    8    0.18128564E-03  0.22734630E-03
   10    8   -0.68846229E-01 -0.39148315E-03
   11    8   -0.18129076E-03 -0.22734670E-03
   12    8   -0.68846234E-01 -0.39148389E-03
   13    8   -0.14761248E-02  0.66908079E-03
   14    8    0.11215737E-09  0.11420182E-09
   15    8   -0.11021696E-02 -0.71418439E-03
   16    8    0.12352850E-08 -0.46669894E-09
   17    8    0.27307954E-08 -0.30525204E-08
   18    8   -0.59557117E-01 -0.56652951E-03
    1    9   -0.78299492E-01  0.55319177E-03
    2    9    0.22736401E-03 -0.18128861E-03
    3    9   -0.64368281E-01 -0.39215526E-03
    4    9   -0.81420449E-03 -0.38034414E-03
    5    9   -0.78299495E-01 -0.55319180E-03
    6    9   -0.18128670E-03  0.22735054E-03
    7    9   -0.64368279E-01  0.39215512E-03
    8    9   -0.38034356E-03 -0.81419534E-03
    9    9   -0.75042401E-01 -0.15949529E-09
   10    9    0.52470904E-04  0.52475352E-04
   11    9   -0.10170324E+00 -0.12003967E-09
   12    9   -0.49653870E-03 -0.49654568E-03
   13    9   -0.26050166E-01  0.48844943E-03
   14    9   -0.12582269E-03 -0.27078540E-03
   15    9   -0.26050166E-01 -0.48844959E-03
   16    9   -0.27078522E-03 -0.12583064E-03
   17    9   -0.27949794E-01 -0.53850946E-09
   18    9    0.48365082E-04  0.48361472E-04
    1   10    0.31053531E-03 -0.95098524E-04
    2   10   -0.68846229E-01 -0.39148261E-03
    3   10    0.32852595E-03 -0.69569015E-03
    4   10   -0.46594049E-01  0.25890103E-03
    5   10    0.95094133E-04 -0.31054383E-03
    6   10   -0.68846229E-01  0.39148251E-03
    7   10    0.69569469E-03 -0.32852285E-03
    8   10   -0.46594047E-01 -0.25890124E-03
    9   10   -0.52471547E-04  0.52473215E-04
   10   10   -0.36305631E-01 -0.11917144E-09
   11   10   -0.49654276E-03  0.49654620E-03
   12   10   -0.10172364E+00  0.42285783E-09
   13   10    0.94218964E-03 -0.77689625E-04
   14   10   -0.53392914E-02 -0.11427076E-03
   15   10    0.77694571E-04 -0.94218756E-03
   16   10   -0.53392905E-02  0.11427013E-03
   17   10    0.42037161E-03 -0.42037173E-03
   18   10   -0.18253389E-01 -0.27756385E-09
    1   11   -0.78299494E-01  0.55319092E-03
    2   11   -0.22735817E-03  0.18129168E-03
    3   11   -0.64368280E-01 -0.39215444E-03
    4   11    0.81419539E-03  0.38033974E-03
    5   11   -0.78299492E-01 -0.55319095E-03
    6   11    0.18128717E-03 -0.22735307E-03
    7   11   -0.64368282E-01  0.39215451E-03
    8   11    0.38033990E-03  0.81419695E-03
    9   11   -0.10170324E+00  0.71212730E-09
   10   11    0.49654013E-03  0.49653738E-03
   11   11   -0.75042404E-01 -0.45534543E-09
   12   11   -0.52474685E-04 -0.52466762E-04
   13   11    0.26050167E-01 -0.48844944E-03
   14   11   -0.12583601E-03 -0.27079449E-03
   15   11    0.26050166E-01  0.48844964E-03
   16   11   -0.27079546E-03 -0.12582743E-03
   17   11   -0.27949795E-01  0.49841199E-09
   18   11   -0.48363884E-04 -0.48360027E-04
    1   12   -0.31053533E-03  0.95099258E-04
    2   12   -0.68846230E-01 -0.39148403E-03
    3   12   -0.32852700E-03  0.69568936E-03
    4   12   -0.46594045E-01  0.25890203E-03
    5   12   -0.95093499E-04  0.31054054E-03
    6   12   -0.68846230E-01  0.39148405E-03
    7   12   -0.69569583E-03  0.32852734E-03
    8   12   -0.46594047E-01 -0.25890248E-03
    9   12    0.49654491E-03 -0.49654681E-03
   10   12   -0.10172364E+00  0.70084077E-10
   11   12    0.52470810E-04 -0.52472184E-04
   12   12   -0.36305629E-01 -0.25199421E-09
   13   12    0.94218020E-03 -0.77691778E-04
   14   12    0.53392904E-02  0.11427093E-03
   15   12    0.77686842E-04 -0.94218202E-03
   16   12    0.53392911E-02 -0.11427016E-03
   17   12   -0.42037075E-03  0.42037226E-03
   18   12   -0.18253390E-01  0.38441565E-10
    1   13   -0.67836563E-09 -0.17602986E-09
    2   13    0.71418644E-03 -0.11021682E-02
    3   13   -0.11312065E-08  0.33078101E-09
    4   13   -0.13300770E-02  0.26801620E-03
    5   13    0.32864754E-09  0.34446053E-09
    6   13   -0.14761337E-02 -0.66908466E-03
    7   13   -0.12943130E-08 -0.22356000E-09
    8   13    0.16015712E-04 -0.86572221E-03
    9   13    0.26050167E-01  0.48844953E-03
   10   13    0.94218778E-03  0.77693640E-04
   11   13   -0.26050167E-01 -0.48844982E-03
   12   13    0.94218231E-03  0.77686217E-04
   13   13    0.33801377E-01  0.27987344E-10
   14   13    0.17417632E-08  0.19039038E-08
   15   13    0.36039589E-01  0.28675416E-03
   16   13   -0.38275050E-09 -0.34054355E-08
   17   13    0.10933890E-09 -0.23968165E-09
   18   13   -0.11432315E-02 -0.51741064E-03
    1   14    0.96768960E-03 -0.83096782E-03
    2   14   -0.27832002E-10 -0.87683157E-09
    3   14    0.74247023E-03  0.36263026E-03
    4   14   -0.11824384E-08  0.57702331E-09
    5   14    0.14563297E-02 -0.91277667E-03
    6   14   -0.34342273E-09 -0.36930830E-09
    7   14    0.20515300E-03 -0.47407579E-03
    8   14    0.39447637E-10  0.23705287E-10
    9   14   -0.12582595E-03  0.27078917E-03
   10   14    0.53392906E-02 -0.11427037E-03
   11   14   -0.12583130E-03  0.27079325E-03
   12   14   -0.53392905E-02  0.11427013E-03
   13   14   -0.12969140E-08  0.11318385E-08
   14   14    0.23924806E-01  0.11887591E-09
   15   14    0.16242530E-08  0.24819045E-08
   16   14    0.25358528E-01 -0.37154171E-03
   17   14    0.92010022E-03 -0.51146153E-03
   18   14    0.92092468E-10 -0.10737814E-09
    1   15   -0.10665485E-08 -0.48858760E-10
    2   15   -0.66908808E-03 -0.14761252E-02
    3   15    0.15429136E-08  0.13549479E-09
    4   15   -0.86571899E-03  0.16008740E-04
    5   15    0.54756613E-09  0.32982335E-09
    6   15   -0.11021646E-02  0.71418179E-03
    7   15    0.82753753E-09 -0.21015256E-09
    8   15    0.26801316E-03 -0.13300711E-02
    9   15    0.26050166E-01 -0.48844969E-03
   10   15    0.77693544E-04  0.94218398E-03
   11   15   -0.26050167E-01  0.48844979E-03
   12   15    0.77686142E-04  0.94218588E-03
   13   15    0.36039590E-01 -0.28675438E-03
   14   15   -0.23065278E-08 -0.59476777E-09
   15   15    0.33801377E-01  0.96827402E-10
   16   15    0.11314968E-08  0.87983034E-09
   17   15   -0.10382548E-09  0.12487058E-09
   18   15   -0.51741247E-03 -0.11432315E-02
    1   16    0.91277543E-03 -0.14563293E-02
    2   16   -0.68946455E-09 -0.43972584E-09
    3   16    0.47407883E-03 -0.20515139E-03
    4   16    0.12468967E-08  0.21759510E-09
    5   16    0.83097151E-03 -0.96769423E-03
    6   16   -0.27839043E-09 -0.37181958E-09
    7   16   -0.36263634E-03 -0.74246604E-03
    8   16    0.18096425E-08  0.37846166E-09
    9   16   -0.27078411E-03  0.12582531E-03
   10   16    0.53392910E-02  0.11427062E-03
   11   16   -0.27079873E-03  0.12582890E-03
   12   16   -0.53392907E-02 -0.11427075E-03
   13   16    0.13035146E-08 -0.24183840E-09
   14   16    0.25358528E-01  0.37154142E-03
   15   16   -0.94413205E-09 -0.48499710E-09
   16   16    0.23924806E-01  0.10521143E-09
   17   16    0.51146348E-03 -0.92010070E-03
   18   16    0.54429395E-10 -0.22332893E-10
    1   17   -0.34594137E-01  0.74902920E-03
    2   17   -0.59783399E-08  0.30455484E-08
    3   17    0.27579995E-01 -0.43728583E-03
    4   17    0.39879103E-08 -0.22318598E-08
    5   17   -0.34594137E-01 -0.74902901E-03
    6   17   -0.67881914E-08 -0.67333088E-08
    7   17    0.27579995E-01  0.43728598E-03
    8   17    0.67443280E-08  0.48941465E-08
    9   17   -0.27949794E-01  0.29536264E-09
   10   17   -0.42037214E-03 -0.42036730E-03
   11   17   -0.27949795E-01 -0.14907902E-09
   12   17    0.42037083E-03  0.42036766E-03
   13   17    0.80527475E-10 -0.98468193E-10
   14   17    0.92009939E-03  0.51146409E-03
   15   17   -0.50011301E-10 -0.58821945E-10
   16   17    0.51146576E-03  0.92009889E-03
   17   17   -0.28561069E-01 -0.53319571E-10
   18   17   -0.48346030E-09  0.10917760E-08
    1   18   -0.27635573E-08  0.18187006E-08
    2   18   -0.59557116E-01 -0.56652929E-03
    3   18    0.54847985E-09 -0.22742289E-08
    4   18    0.34249621E-01  0.41363085E-03
    5   18   -0.33718522E-08 -0.13092284E-08
    6   18   -0.59557116E-01  0.56652955E-03
    7   18    0.26811267E-08  0.25375891E-08
    8   18    0.34249621E-01 -0.41363102E-03
    9   18   -0.48364850E-04  0.48365333E-04
   10   18   -0.18253389E-01  0.47249078E-09
   11   18    0.48363002E-04 -0.48363834E-04
   12   18   -0.18253390E-01 -0.37055531E-09
   13   18   -0.11432335E-02  0.51741039E-03
   14   18    0.45092386E-11 -0.10704843E-09
   15   18   -0.51741179E-03  0.11432326E-02
   16   18    0.19997212E-10  0.19434023E-10
   17   18    0.35170486E-10  0.37154103E-09
   18   18   -0.31186047E-01 -0.16744495E-10

   -1    1   -2
    1    1   -0.75058193E-01  0.41602153E-04
    2    1   -0.49320095E-04  0.33825916E-04
    3    1   -0.10170780E+00  0.17121024E-09
    4    1    0.47604906E-03 -0.33872325E-04
    5    1   -0.64370587E-01 -0.23457719E-03
    6    1    0.33984352E-03  0.29692377E-03
    7    1   -0.78294802E-01 -0.15979226E-03
    8    1    0.21416835E-03 -0.50029731E-03
    9    1   -0.78295818E-01 -0.90772486E-03
   10    1   -0.23534666E-03  0.49883981E-03
   11    1   -0.64370999E-01  0.76549734E-05
   12    1    0.81304091E-03 -0.30172099E-03
   13    1   -0.26050650E-01 -0.13329697E-03
   14    1    0.12105528E-03  0.16150101E-03
   15    1    0.27947725E-01  0.13021113E-03
   16    1    0.60814379E-04  0.17300776E-05
   17    1    0.26054534E-01  0.41446075E-03
   18    1   -0.27146049E-03  0.17212508E-03
    1    2    0.49313602E-04 -0.33826598E-04
    2    2   -0.36238806E-01  0.25981189E-03
    3    2    0.47604829E-03  0.33874999E-04
    4    2   -0.10176382E+00  0.10328197E-08
    5    2   -0.72308416E-03  0.20637624E-03
    6    2   -0.46585277E-01  0.21981155E-03
    7    2   -0.64051380E-04 -0.41772102E-03
    8    2   -0.68856144E-01  0.20736932E-03
    9    2   -0.31543059E-03  0.42205055E-03
   10    2   -0.68852644E-01  0.67153547E-03
   11    2   -0.31889255E-03 -0.19935202E-03
   12    2   -0.46593058E-01  0.75991304E-04
   13    2   -0.96217498E-03  0.11685624E-03
   14    2   -0.53419922E-02  0.11387843E-03
   15    2    0.44635311E-03 -0.28297064E-04
   16    2    0.18259541E-01 -0.17838285E-03
   17    2    0.73497598E-04  0.10137225E-03
   18    2    0.53420329E-02 -0.13214453E-03
    1    3   -0.10170775E+00  0.43024195E-11
    2    3   -0.47603400E-03 -0.33866803E-04
    3    3   -0.75058194E-01 -0.41602033E-04
    4    3    0.49304755E-04  0.33826035E-04
    5    3   -0.64370563E-01  0.23457717E-03
    6    3   -0.33984913E-03  0.29693073E-03
    7    3   -0.78294844E-01  0.15979298E-03
    8    3   -0.21416231E-03 -0.50030490E-03
    9    3   -0.78295859E-01  0.90772523E-03
   10    3    0.23534509E-03  0.49885068E-03
   11    3   -0.64370976E-01 -0.76550894E-05
   12    3   -0.81303947E-03 -0.30172769E-03
   13    3    0.26050646E-01 -0.13329719E-03
   14    3    0.12105694E-03 -0.16149880E-03
   15    3    0.27947735E-01 -0.13021139E-03
   16    3   -0.60814040E-04  0.17257043E-05
   17    3   -0.26054530E-01  0.41446117E-03
   18    3   -0.27145578E-03 -0.17212388E-03
    1    4   -0.47605215E-03  0.33868029E-04
    2    4   -0.10176379E+00  0.41866483E-09
    3    4   -0.49309719E-04 -0.33828408E-04
    4    4   -0.36238811E-01 -0.25981293E-03
    5    4    0.72308543E-03  0.20637476E-03
    6    4   -0.46585256E-01 -0.21981124E-03
    7    4    0.64048954E-04 -0.41772137E-03
    8    4   -0.68856184E-01 -0.20736944E-03
    9    4    0.31543342E-03  0.42205673E-03
   10    4   -0.68852682E-01 -0.67153571E-03
   11    4    0.31888919E-03 -0.19935204E-03
   12    4   -0.46593039E-01 -0.75990824E-04
   13    4   -0.96218965E-03 -0.11685704E-03
   14    4    0.53419921E-02  0.11387948E-03
   15    4   -0.44635583E-03 -0.28291265E-04
   16    4    0.18259547E-01  0.17838300E-03
   17    4    0.73499443E-04 -0.10137239E-03
   18    4   -0.53420327E-02 -0.13214465E-03
    1    5   -0.78294843E-01 -0.15979252E-03
    2    5    0.64050635E-04  0.41772492E-03
    3    5   -0.78294803E-01  0.15979296E-03
    4    5   -0.64050258E-04  0.41771856E-03
    5    5    0.18862022E-02  0.23079916E-09
    6    5   -0.70122409E-08  0.14688015E-03
    7    5   -0.12188469E+00  0.18545518E-09
    8    5    0.69642376E-08  0.20761531E-03
    9    5   -0.16107379E+00 -0.48131737E-09
   10    5   -0.32486042E-08 -0.12304114E-03
   11    5    0.72516657E-02  0.41245521E-10
   12    5    0.36986615E-08 -0.38434497E-03
   13    5   -0.62634634E-08  0.95460230E-03
   14    5   -0.14445107E-02  0.17199257E-08
   15    5    0.34598850E-01 -0.43835685E-09
   16    5   -0.24351386E-08 -0.14936383E-03
   17    5    0.84405832E-08 -0.53225662E-03
   18    5    0.83310264E-03  0.32629839E-08
    1    6   -0.21417948E-03  0.50030413E-03
    2    6   -0.68856180E-01  0.20737015E-03
    3    6    0.21417526E-03  0.50030075E-03
    4    6   -0.68856143E-01 -0.20736946E-03
    5    6    0.83535022E-08  0.29177766E-03
    6    6    0.99214935E-02 -0.38650227E-09
    7    6   -0.48612536E-08 -0.20760612E-03
    8    6   -0.15992756E+00  0.83543250E-09
    9    6   -0.52130058E-08 -0.10325331E-03
   10    6   -0.21543687E+00  0.11105012E-08
   11    6    0.29240454E-08 -0.68726942E-03
   12    6    0.28064525E-01 -0.75538968E-09
   13    6    0.13881159E-02  0.15975744E-09
   14    6   -0.46599771E-08 -0.56460756E-03
   15    6   -0.79688827E-09 -0.18236557E-02
   16    6    0.59566911E-01 -0.30590363E-09
   17    6   -0.10963023E-02  0.41538024E-08
   18    6    0.75208083E-08  0.38237477E-03
    1    7   -0.64370564E-01 -0.23457734E-03
    2    7    0.72309093E-03 -0.20637562E-03
    3    7   -0.64370586E-01  0.23457671E-03
    4    7   -0.72308782E-03 -0.20637408E-03
    5    7   -0.67198937E-01 -0.56535385E-09
    6    7    0.76796892E-08 -0.34865997E-03
    7    7    0.18862029E-02  0.24056079E-09
    8    7   -0.83180193E-08 -0.29178650E-03
    9    7    0.72621974E-02  0.37270365E-09
   10    7    0.36391340E-09 -0.68239565E-03
   11    7   -0.60677617E-01  0.59878998E-10
   12    7   -0.12391237E-08 -0.21116052E-03
   13    7    0.12881671E-08  0.62394244E-03
   14    7   -0.21739491E-03 -0.22356766E-08
   15    7   -0.27586032E-01  0.18476520E-09
   16    7    0.48653735E-09  0.18887974E-03
   17    7   -0.65279171E-08 -0.96732323E-03
   18    7   -0.37166369E-03 -0.28159981E-08
    1    8   -0.33983244E-03 -0.29692717E-03
    2    8   -0.46585257E-01  0.21981130E-03
    3    8    0.33983606E-03 -0.29693032E-03
    4    8   -0.46585281E-01 -0.21981107E-03
    5    8   -0.83932747E-08  0.34867002E-03
    6    8   -0.64276576E-01  0.41886644E-09
    7    8    0.54385067E-08 -0.14689137E-03
    8    8    0.99214919E-02 -0.52353533E-09
    9    8    0.16271189E-08 -0.38571843E-03
   10    8    0.28069623E-01 -0.10514271E-08
   11    8    0.85945738E-09 -0.20218817E-03
   12    8   -0.75928453E-01  0.12672798E-08
   13    8    0.22976562E-04  0.78068655E-09
   14    8    0.17843103E-08 -0.54701677E-03
   15    8    0.88827070E-09  0.99470115E-03
   16    8   -0.34246703E-01  0.44161015E-10
   17    8    0.25459256E-03 -0.43009410E-08
   18    8   -0.83361739E-08  0.81176193E-03
    1    9   -0.64370975E-01  0.76540871E-05
    2    9    0.31888089E-03  0.19935390E-03
[...]
   16    8    0.63826080E-03 -0.54972830E-06  0.10779608E-02  0.18601793E-04  0.78413441E-03  0.14273259E-05
   17    8    0.32476044E-05  0.15369292E-05 -0.51454547E-06  0.30174849E-04  0.10502184E-04  0.17952801E-05
   18    8    0.78424467E-03 -0.20871347E-05  0.10777953E-02  0.33273367E-04  0.63830233E-03 -0.55411386E-06
    1    9   -0.14471115E-03  0.15380134E-10  0.30763181E-10  0.18924192E-04  0.67705648E-04 -0.78609083E-11
    2    9    0.66792493E-05  0.67070665E-10 -0.19457796E-09 -0.11529039E-04 -0.38393442E-05  0.24132657E-10
    3    9   -0.35068690E-03  0.13198738E-11  0.16992273E-09  0.18530255E-04 -0.20112356E-02  0.35198584E-10
    4    9   -0.11485647E-04 -0.12168233E-09  0.17343380E-09 -0.10791162E-04  0.69379878E-05 -0.40489273E-10
    5    9   -0.65693419E-05  0.26877668E-05 -0.63909780E-03 -0.21101924E-05  0.34234127E-04 -0.35586598E-05
    6    9    0.12928824E-05  0.15847590E-04  0.45375771E-05  0.28363882E-05  0.41972395E-05  0.82204574E-05
    7    9   -0.65692033E-05 -0.26877639E-05  0.63909816E-03 -0.21102422E-05  0.34234411E-04  0.35586666E-05
    8    9    0.12931281E-05 -0.15847627E-04 -0.45375643E-05  0.28363064E-05  0.41970770E-05 -0.82204142E-05
    9    9   -0.88438705E-03  0.80437065E-11  0.28686534E-09 -0.45681257E-05  0.52216287E-03 -0.14255271E-10
   10    9   -0.10943764E-04  0.60874106E-10  0.58219205E-11 -0.14360930E-04 -0.74278620E-05 -0.88646934E-11
   11    9    0.26894052E-03 -0.83807802E-11  0.66153922E-10  0.11237451E-04  0.76652814E-04  0.32490633E-11
   12    9   -0.18708211E-06 -0.14126009E-09 -0.27208444E-10 -0.11290170E-04  0.95421696E-06 -0.89231106E-10
   13    9   -0.92386115E-03  0.12462515E-10 -0.17011761E-09  0.85988482E-05 -0.15884106E-02 -0.18474467E-11
   14    9    0.55786104E-06 -0.46989838E-10 -0.12063005E-10 -0.12398879E-04 -0.39873249E-05 -0.26763951E-10
   15    9   -0.23369262E-09 -0.13587683E-04 -0.80104877E-03  0.16002223E-10 -0.12964612E-09  0.13706197E-04
   16    9   -0.16194846E-10  0.12309002E-04 -0.11521921E-05  0.19768886E-10  0.34951937E-10 -0.28844772E-05
   17    9   -0.37529873E-09 -0.18499849E-04 -0.52438944E-03  0.18267055E-10  0.10007367E-09 -0.28180462E-04
   18    9    0.16045602E-10  0.13338330E-04  0.34761867E-05 -0.24754211E-10 -0.10616659E-10  0.10358894E-04
    1   10   -0.16555289E-04 -0.68295932E-10  0.45035600E-10 -0.34250864E-05 -0.95705117E-05 -0.10715406E-10
    2   10   -0.37113254E-03  0.21391458E-10  0.78639557E-12 -0.19050836E-04  0.46273622E-03  0.25165826E-10
    3   10    0.89245551E-05  0.63617735E-10 -0.11945571E-10 -0.21579733E-04 -0.36709626E-05 -0.32802227E-10
    4   10   -0.10770961E-03 -0.45366925E-11  0.12303293E-09 -0.12008092E-04 -0.26008543E-02 -0.60272241E-11
    5   10   -0.22999515E-05  0.12003377E-04 -0.41224395E-05  0.50314810E-05 -0.94343263E-05  0.74442655E-05
    6   10   -0.13519447E-03  0.86969157E-06 -0.11475942E-02  0.30556620E-05  0.11997320E-03 -0.68288200E-06
    7   10   -0.22998781E-05 -0.12003291E-04  0.41224349E-05  0.50314566E-05 -0.94342277E-05 -0.74442609E-05
    8   10   -0.13519424E-03 -0.86967652E-06  0.11475945E-02  0.30556782E-05  0.11997344E-03  0.68290860E-06
    9   10    0.16225935E-04 -0.53152950E-10 -0.23817749E-10 -0.17294312E-04  0.14563533E-04  0.24268847E-10
   10   10   -0.11058311E-02 -0.56272014E-11  0.30733759E-09  0.17826639E-05  0.85095242E-03  0.30392759E-11
   11   10    0.85434318E-05  0.10658471E-09 -0.38246856E-10 -0.22710522E-04  0.25397904E-05 -0.19369614E-10
   12   10    0.82127375E-04  0.21025608E-10 -0.33470089E-10 -0.85807088E-05  0.63026414E-04 -0.29397223E-11
   13   10    0.43315285E-05  0.23012932E-10  0.96229340E-10 -0.18423432E-04  0.65699398E-04  0.11897585E-10
   14   10   -0.94862040E-03  0.83970471E-11 -0.21568992E-09 -0.84213874E-05 -0.16414749E-02 -0.43409313E-12
   15   10   -0.45381520E-10  0.30302626E-04  0.80175675E-05 -0.65903497E-10 -0.61348618E-11  0.12806220E-04
   16   10   -0.23226954E-09  0.13166925E-04 -0.81978502E-03 -0.12112647E-10 -0.11592717E-09  0.15717270E-05
   17   10    0.13024962E-10  0.28185309E-04 -0.73620266E-05 -0.17789874E-10  0.17520226E-10  0.25646071E-04
   18   10   -0.38763360E-09  0.18931910E-04 -0.47012552E-03  0.13432027E-10  0.25632074E-10  0.26189349E-04
    1   11   -0.70206207E-03  0.12745075E-10 -0.19954461E-10  0.10771082E-04 -0.80483861E-04 -0.57991687E-11
    2   11    0.11910059E-04 -0.13786630E-09  0.20755270E-09 -0.34714594E-06 -0.16272136E-04  0.17433582E-11
    3   11    0.40419126E-03 -0.72363925E-11 -0.18774536E-09 -0.53616322E-05  0.51802713E-03  0.65395029E-11
    4   11    0.16989078E-05  0.10026827E-09 -0.16482492E-09  0.25816004E-04  0.13213883E-04 -0.71819435E-10
    5   11   -0.20277283E-03 -0.81821929E-05 -0.40379098E-03  0.28614006E-06  0.35306386E-03 -0.74091574E-06
    6   11    0.10404207E-04  0.84823342E-05  0.20020148E-05 -0.79047036E-05  0.53409221E-05  0.76656771E-05
    7   11   -0.20277279E-03  0.81821761E-05  0.40379151E-03  0.28617196E-06  0.35306388E-03  0.74090546E-06
    8   11    0.10403841E-04 -0.84823231E-05 -0.20021097E-05 -0.79045899E-05  0.53409700E-05 -0.76657809E-05
    9   11   -0.30443998E-03  0.11147103E-10  0.92132474E-11  0.36935948E-05  0.82451643E-04  0.13328775E-10
   10   11   -0.72534443E-05 -0.27315315E-10 -0.94164485E-10 -0.92040355E-05 -0.38399773E-07 -0.34781873E-10
   11   11    0.88438703E-03 -0.14201279E-10 -0.29884723E-09 -0.45681378E-05 -0.52216285E-03  0.12838181E-10
   12   11    0.18950431E-04  0.46839786E-10  0.42151687E-10  0.24020193E-04  0.11545035E-04  0.41581323E-10
   13   11    0.52455436E-03  0.12197479E-10 -0.14779818E-09 -0.93643753E-05  0.62543423E-03  0.62808980E-11
   14   11    0.57051750E-05  0.22116600E-10 -0.74326602E-12  0.29349981E-05  0.12174395E-04  0.19361230E-10
   15   11   -0.63287074E-10  0.60520107E-05  0.52648439E-03  0.54471877E-11 -0.81399880E-10 -0.12072511E-04
   16   11   -0.20131120E-11 -0.13999748E-04 -0.45245090E-05  0.12512731E-10  0.65628870E-11 -0.11298963E-04
   17   11   -0.37834399E-10  0.87791645E-05  0.45467248E-03 -0.20401860E-10 -0.60602609E-10  0.39007146E-04
   18   11    0.81935105E-11 -0.42520431E-05  0.23159484E-05  0.15592814E-10  0.23548216E-10 -0.63336645E-05
    1   12   -0.90233439E-05  0.72867612E-10  0.74562541E-10  0.12422103E-04  0.15934279E-04 -0.60531780E-11
    2   12   -0.37910788E-03 -0.77987183E-12 -0.43321475E-10 -0.33639230E-05 -0.49841416E-03 -0.11110542E-10
    3   12    0.79747766E-05 -0.58613657E-10 -0.37765628E-10  0.22263532E-04 -0.47498095E-05  0.11546398E-10
    4   12    0.20512209E-03  0.89756528E-12 -0.14356707E-09  0.55935412E-05  0.56563965E-03 -0.18837318E-11
    5   12   -0.76927055E-05  0.67025299E-05  0.36975912E-05 -0.15889798E-04 -0.33033201E-06 -0.53845497E-05
    6   12    0.49719186E-04  0.57504284E-05  0.15721636E-03 -0.51587789E-05  0.40776851E-03  0.10039733E-05
    7   12   -0.76924299E-05 -0.67026340E-05 -0.36976294E-05 -0.15889792E-04 -0.33037024E-06  0.53844963E-05
    8   12    0.49719211E-04 -0.57504313E-05 -0.15721584E-03 -0.51586811E-05  0.40776856E-03 -0.10039853E-05
    9   12   -0.34270228E-05  0.12048176E-09  0.89534089E-10  0.83335060E-05 -0.71237734E-05 -0.15632377E-10
   10   12   -0.20395226E-03 -0.13654544E-10 -0.27824263E-10 -0.16870977E-05 -0.26321781E-03 -0.11916188E-10
   11   12   -0.15485884E-04 -0.11641007E-09 -0.11549703E-11  0.20869764E-04 -0.14122765E-04  0.36331303E-10
   12   12    0.11058310E-02  0.45617395E-11 -0.25934306E-09  0.17826394E-05 -0.85095238E-03  0.38829105E-11
   13   12    0.83283718E-06  0.20290873E-10 -0.43129508E-10  0.41871257E-05 -0.71700864E-04 -0.28008238E-11
   14   12    0.65901474E-03  0.12631665E-10 -0.12365394E-09  0.97798363E-05  0.75355912E-03  0.15936861E-10
   15   12    0.45819032E-10 -0.28583217E-04 -0.74951277E-06  0.27679152E-10  0.20286064E-10 -0.21166849E-04
   16   12   -0.55686638E-10 -0.65527952E-05  0.51533587E-03  0.20097956E-10 -0.72644864E-10  0.25106441E-05
   17   12    0.16671661E-10 -0.65089915E-05 -0.76360030E-05  0.42384980E-10  0.18349941E-10 -0.11924508E-04
   18   12   -0.52785889E-11 -0.13434375E-04  0.54814415E-03 -0.25287949E-11 -0.66606425E-10 -0.32592346E-04
    1   13    0.45151146E-03 -0.55870844E-11 -0.46275738E-10 -0.72343072E-05 -0.26398795E-03  0.24854704E-10
    2   13    0.34557801E-04 -0.73140399E-10 -0.32566309E-10 -0.11013626E-04  0.50423094E-04 -0.15386805E-10
    3   13   -0.91210954E-03 -0.24000502E-10  0.34907445E-09  0.86696020E-05 -0.14443157E-02  0.65402528E-12
    4   13    0.43724035E-06  0.10766879E-09 -0.35986158E-12 -0.11863200E-04 -0.45670940E-04 -0.14039923E-10
    5   13    0.44587253E-03 -0.44073345E-05 -0.85761864E-04  0.53114975E-05  0.44596370E-03  0.38110303E-05
    6   13    0.18778635E-05 -0.12049968E-04  0.10069303E-05 -0.78155369E-05 -0.13993238E-05  0.79345141E-05
    7   13    0.44587320E-03  0.44073351E-05  0.85761930E-04  0.53114904E-05  0.44596436E-03 -0.38110439E-05
    8   13    0.18778214E-05  0.12050008E-04 -0.10069423E-05 -0.78156089E-05 -0.13993378E-05 -0.79344830E-05
    9   13   -0.26406241E-03 -0.12962888E-10 -0.50375186E-10  0.59816548E-05  0.45133345E-03  0.28166438E-10
   10   13   -0.51614859E-04  0.33656751E-10 -0.52492478E-11 -0.10480657E-05 -0.35681699E-04 -0.30583628E-10
   11   13   -0.14444117E-02  0.15685896E-10  0.36932884E-09  0.13845430E-04 -0.91209403E-03 -0.40228988E-11
   12   13    0.47070621E-04 -0.27549745E-10 -0.64084435E-11 -0.66607155E-05 -0.46532437E-08 -0.34331036E-10
   13   13   -0.21390616E-11  0.77081825E-12  0.82242224E-11  0.58323928E-05 -0.53123097E-11 -0.55292381E-11
   14   13    0.52017328E-05 -0.28392598E-10 -0.69696083E-11 -0.45330513E-05 -0.46931775E-05 -0.48855734E-10
   15   13    0.46735108E-10 -0.65893224E-05  0.54933650E-03 -0.50374179E-11  0.22326043E-10 -0.80552388E-05
   16   13   -0.11952853E-10  0.18267377E-04 -0.10859493E-04 -0.10761824E-10  0.87683397E-11  0.10296143E-04
   17   13    0.35828575E-10 -0.96482687E-05  0.54925476E-03  0.62300610E-11  0.59741618E-10 -0.27710777E-04
   18   13    0.18060642E-10  0.39525975E-05  0.10916862E-04 -0.96585336E-11 -0.20429150E-10  0.38349903E-05
    1   14   -0.12456319E-04  0.88604451E-10  0.19818454E-10 -0.10089637E-04 -0.20152737E-04 -0.26955659E-10
    2   14    0.39650050E-03 -0.46214434E-10 -0.56324397E-10 -0.42113295E-05 -0.14509787E-03  0.84950037E-12
    3   14   -0.40780364E-05 -0.49530634E-10  0.29436133E-10 -0.13013108E-04  0.52333966E-05 -0.45140823E-11
    4   14   -0.98850333E-03  0.41042043E-10  0.32417812E-09 -0.75567341E-05 -0.14355273E-02  0.67626336E-11
    5   14    0.59917872E-06 -0.26931670E-05 -0.49199168E-07 -0.84763971E-05 -0.59115061E-06  0.50427460E-05
    6   14    0.48221716E-03  0.20954743E-05 -0.18242578E-03 -0.77536489E-05  0.48216599E-03 -0.44280459E-05
    7   14    0.59909756E-06  0.26931694E-05  0.49204923E-07 -0.84763423E-05 -0.59105933E-06 -0.50427425E-05
    8   14    0.48221785E-03 -0.20954806E-05  0.18242590E-03 -0.77536969E-05  0.48216671E-03  0.44280780E-05
    9   14    0.19821677E-04  0.68496989E-10  0.46518093E-10 -0.16833705E-05  0.11948990E-04  0.52288385E-11
   10   14   -0.14491597E-03  0.38112039E-10 -0.45239423E-10 -0.88809499E-05  0.39643884E-03 -0.11992253E-10
   11   14   -0.47065255E-05 -0.95775925E-11 -0.29395657E-10 -0.69385821E-05  0.43565701E-05 -0.68880150E-11
   12   14   -0.14355780E-02  0.21632331E-11  0.33391275E-09 -0.11127569E-04 -0.98860394E-03  0.16089516E-10
   13   14   -0.22700259E-04  0.56125695E-10  0.12921398E-10 -0.69580169E-05  0.23179799E-04  0.19336587E-10
   14   14   -0.93965510E-12 -0.23195433E-11  0.10244629E-10 -0.36241570E-05 -0.92922747E-11  0.11589898E-10
   15   14    0.12103171E-10  0.32363326E-04 -0.29184459E-05 -0.18082714E-11 -0.26027463E-10  0.75416696E-05
   16   14    0.57962568E-10  0.54938708E-05  0.57604978E-03  0.72171650E-11  0.22494538E-10  0.70203083E-05
   17   14   -0.39445547E-11  0.10485915E-04  0.28708033E-05 -0.55318376E-11  0.19766476E-10  0.91202160E-05
   18   14    0.45517924E-10  0.51407208E-05  0.57606979E-03  0.97973372E-11  0.62434292E-10  0.15724484E-04
    1   15   -0.30279560E-10 -0.68846011E-06  0.22331328E-03  0.17983794E-10  0.24574299E-10  0.15383189E-04
    2   15   -0.99953637E-11  0.28932342E-04  0.11451375E-04  0.39210690E-10  0.14971947E-10  0.26017148E-04
    3   15    0.19902591E-09  0.10413848E-04 -0.10792571E-02 -0.70421017E-11  0.54610041E-09  0.21397069E-04
    4   15    0.23967184E-11 -0.25061614E-04 -0.45364899E-05 -0.54266405E-11 -0.19038666E-10 -0.37092541E-04
    5   15   -0.47276377E-03  0.71651341E-05  0.68054305E-03  0.76752620E-05 -0.78524603E-03  0.76461229E-05
    6   15   -0.52719565E-06 -0.16518097E-04  0.20136616E-05 -0.47942417E-04 -0.93580054E-05 -0.16778380E-04
    7   15    0.47276416E-03  0.71651323E-05  0.68054307E-03 -0.76752669E-05  0.78524631E-03  0.76461472E-05
    8   15    0.52716056E-06 -0.16517988E-04  0.20137056E-05  0.47942494E-04  0.93578827E-05 -0.16778421E-04
    9   15    0.10241748E-10  0.67233671E-05  0.37720140E-03 -0.21728100E-11  0.11336495E-09  0.56099030E-06
   10   15    0.20791303E-10 -0.81984412E-05  0.49741072E-05 -0.64190214E-10  0.12052473E-10 -0.26051082E-06
   11   15    0.38304231E-09  0.57483926E-05 -0.15896258E-02 -0.22695893E-10  0.19126007E-09  0.17791368E-04
   12   15   -0.45185027E-10 -0.61493767E-05  0.48479267E-07  0.98118973E-10 -0.66379425E-10 -0.11701420E-04
   13   15   -0.12120957E-09  0.90506469E-05  0.50793215E-03  0.24230187E-11  0.81559827E-11  0.26158992E-05
   14   15   -0.26150096E-11 -0.13906421E-04 -0.30241844E-05 -0.27908307E-10  0.34400619E-11 -0.15503159E-04
   15   15   -0.89943740E-11 -0.39206749E-11  0.12729172E-11  0.97524067E-05  0.82297957E-11  0.17481033E-10
   16   15    0.56604943E-06 -0.79722789E-11  0.12642703E-10 -0.12126467E-04 -0.14641616E-05 -0.13862784E-10
   17   15    0.73235050E-03  0.77109372E-11  0.91319605E-10  0.69536582E-05  0.18589260E-02  0.15672234E-10
   18   15   -0.26727597E-05 -0.63147243E-11 -0.20875961E-10  0.35979684E-05 -0.45610296E-05 -0.57408441E-11
    1   16   -0.18293231E-10  0.16838501E-05  0.69470130E-06 -0.31814489E-10  0.21765052E-10  0.33990630E-05
    2   16   -0.26824048E-10 -0.22187040E-05  0.36227787E-03  0.25556083E-10  0.37410653E-11 -0.10274548E-04
    3   16    0.57833225E-10 -0.16585381E-04  0.72909874E-05  0.55768305E-10 -0.27147846E-10 -0.47815763E-05
    4   16    0.19795080E-09 -0.13443492E-04 -0.11906926E-02 -0.34924137E-10  0.52524323E-09 -0.15044873E-04
    5   16   -0.33266757E-05 -0.64716662E-05 -0.21152182E-05 -0.70139555E-06  0.35832346E-05 -0.46279946E-05
    6   16   -0.45237974E-03 -0.90986855E-05  0.75310905E-03 -0.88862725E-05 -0.76034451E-03 -0.90254353E-05
    7   16    0.33266889E-05 -0.64717475E-05 -0.21152383E-05  0.70137635E-06 -0.35832263E-05 -0.46280734E-05
    8   16    0.45238011E-03 -0.90987096E-05  0.75310893E-03  0.88862858E-05  0.76034475E-03 -0.90253841E-05
    9   16    0.26211808E-10 -0.37235694E-05 -0.10438286E-04 -0.39943365E-10  0.29081723E-10  0.56385049E-05
   10   16    0.42122193E-10 -0.54116792E-05  0.51197656E-03 -0.26640630E-10  0.15938571E-09 -0.13308843E-05
   11   16   -0.41609078E-10 -0.23028738E-05  0.23370432E-05  0.48125171E-10 -0.16514048E-10 -0.10330772E-04
   12   16    0.32888293E-09 -0.11986841E-04 -0.15558655E-02  0.54724553E-11  0.17362189E-09 -0.15432281E-04
   13   16    0.14980705E-10 -0.88651077E-05 -0.74501898E-05 -0.55672237E-11  0.24957038E-10 -0.12865323E-04
   14   16   -0.12640290E-09 -0.73530711E-05  0.25100381E-03  0.31943488E-11 -0.16019767E-10 -0.34594874E-05
   15   16   -0.23402230E-05 -0.15537247E-10 -0.23673958E-10  0.14017634E-04 -0.16465888E-06 -0.20158123E-10
   16   16   -0.10780015E-10 -0.10332707E-10  0.14615458E-10 -0.69243140E-05  0.43672342E-11  0.14332447E-10
   17   16    0.26202052E-05 -0.28473621E-10  0.11121580E-10  0.40957774E-05  0.19196562E-05  0.52756134E-11
   18   16    0.69185310E-03 -0.18806192E-11  0.81373317E-10 -0.60076974E-05  0.18359759E-02 -0.11372190E-10
    1   17    0.97331494E-10  0.82935586E-06  0.37714576E-03  0.43353181E-11  0.10864036E-10  0.17115786E-06
    2   17   -0.46115193E-10 -0.45247871E-05 -0.53156510E-05 -0.12802476E-10 -0.22177364E-10 -0.67797845E-05
    3   17    0.20317313E-09  0.38774969E-05 -0.15896262E-02 -0.22032146E-10  0.36423488E-09 -0.76746436E-06
    4   17    0.43246279E-10 -0.23132122E-04  0.68027124E-06  0.15547191E-10  0.13188934E-10 -0.12739907E-04
    5   17   -0.78525318E-03  0.58094434E-05  0.68055409E-03  0.12278550E-04 -0.47281215E-03  0.68741362E-05
    6   17    0.88028119E-05 -0.16759917E-04 -0.17967229E-05 -0.15922179E-04  0.10379532E-06 -0.12218270E-04
    7   17    0.78525343E-03  0.58094053E-05  0.68055405E-03 -0.12278533E-04  0.47281253E-03  0.68741259E-05
    8   17   -0.88027718E-05 -0.16759713E-04 -0.17966541E-05  0.15922166E-04 -0.10385497E-06 -0.12218191E-04
    9   17    0.19564537E-10 -0.14863493E-04  0.22340645E-03  0.23603171E-10 -0.27749862E-10 -0.10929679E-04
   10   17   -0.19528145E-10 -0.19806599E-04 -0.11534784E-04 -0.65990045E-11  0.50090923E-10 -0.58964746E-06
   11   17    0.55990795E-09  0.16323080E-04 -0.10791995E-02 -0.54178032E-11  0.20837901E-09  0.18945813E-04
   12   17   -0.17515100E-10 -0.22805335E-04  0.48322907E-05  0.12150824E-11 -0.60360391E-10 -0.15075447E-04
   13   17   -0.10243295E-10  0.16543714E-04  0.50798062E-03  0.25343951E-10 -0.12231549E-09  0.11269566E-04
   14   17    0.63379050E-12 -0.83995336E-06  0.29487992E-05  0.71025763E-11  0.12502178E-10 -0.72113980E-05
   15   17    0.18586705E-02 -0.96667770E-11  0.81131675E-10 -0.17380560E-05  0.73251672E-03 -0.82556009E-14
   16   17    0.46207909E-05 -0.51514566E-11 -0.12555633E-11 -0.70941378E-05  0.28119846E-05 -0.11534491E-10
   17   17   -0.25732434E-11 -0.89199964E-11 -0.21545613E-11 -0.23221654E-05  0.64626656E-11  0.12454276E-10
   18   17    0.16111326E-05  0.53575205E-12  0.15081902E-10 -0.64332117E-05 -0.57894528E-06 -0.15239810E-10
    1   18    0.28193643E-10 -0.24224640E-05  0.10237058E-04  0.34904840E-10 -0.43887872E-11 -0.83567394E-05
    2   18    0.14000359E-09  0.11090024E-05  0.51180812E-03  0.49347278E-10  0.26348242E-10 -0.46166318E-05
    3   18   -0.44625658E-10 -0.97136476E-05 -0.20119435E-05 -0.74432907E-10  0.34264990E-10 -0.73198485E-05
    4   18    0.21336796E-09 -0.81210441E-05 -0.15558770E-02 -0.52211442E-10  0.32894084E-09 -0.66258137E-05
    5   18   -0.39119725E-05 -0.64484108E-05  0.21532453E-05 -0.58231453E-05  0.28826122E-05 -0.89828773E-05
    6   18   -0.76039182E-03 -0.60049021E-05  0.75299423E-03 -0.14448806E-04 -0.45238971E-03 -0.82245065E-05
    7   18    0.39119986E-05 -0.64484524E-05  0.21532344E-05  0.58230585E-05 -0.28826070E-05 -0.89829252E-05
    8   18    0.76039201E-03 -0.60048936E-05  0.75299423E-03  0.14448796E-04  0.45239010E-03 -0.82245357E-05
    9   18   -0.35118724E-10 -0.12824086E-04 -0.81266328E-06  0.62845577E-11  0.22443427E-10 -0.27434063E-05
   10   18   -0.12668152E-10  0.11740722E-04  0.36222486E-03 -0.19608445E-10 -0.11613407E-10  0.77779382E-05
   11   18    0.32501543E-10 -0.15463480E-04 -0.70774045E-05 -0.31468210E-10 -0.25276636E-10 -0.92958509E-05
   12   18    0.53467881E-09 -0.15789679E-04 -0.11906166E-02 -0.17169287E-10  0.17685785E-09 -0.18228860E-04
   13   18    0.67286526E-11 -0.34831420E-05  0.76656618E-05 -0.21034775E-10  0.17918762E-10 -0.79453225E-05
   14   18    0.16730655E-10 -0.75979318E-05  0.25107289E-03 -0.10009175E-10 -0.12342967E-09 -0.69293645E-05
   15   18   -0.19066692E-05 -0.13831459E-10  0.76756755E-11 -0.39038572E-05 -0.24914839E-05 -0.13162965E-10
   16   18    0.18359255E-02 -0.68896099E-12  0.78519437E-10 -0.36867438E-06  0.69180616E-03  0.11458528E-10
   17   18    0.40801153E-06 -0.12330699E-10 -0.14954684E-10 -0.75732342E-05  0.24571844E-05 -0.17150820E-10
   18   18   -0.49036114E-11  0.12271838E-10  0.11791587E-10 -0.22785782E-05  0.99019606E-12 -0.45064126E-11
