# File written on  3Dec2024 at 20:53:36 

calc_only_A  :  F

begin real_lattice
  -2.8685210   2.8685210   1.7762411
   2.8685210   2.8685210   1.7762411
   2.8685210   2.8685210  -1.7762411
end real_lattice

begin recip_lattice
  -1.0951960   1.0951960   0.0000000
   1.0951960   0.0000000   1.7686747
   0.0000000   1.0951960  -1.7686747
end recip_lattice

begin kpoints
    64
    0.00000000    0.00000000    0.00000000
    0.00000000    0.00000000    0.25000000
    0.00000000    0.00000000    0.50000000
    0.00000000    0.00000000    0.75000000
    0.00000000    0.25000000    0.00000000
    0.00000000    0.25000000    0.25000000
    0.00000000    0.25000000    0.50000000
    0.00000000    0.25000000    0.75000000
    0.00000000    0.50000000    0.00000000
    0.00000000    0.50000000    0.25000000
    0.00000000    0.50000000    0.50000000
    0.00000000    0.50000000    0.75000000
    0.00000000    0.75000000    0.00000000
    0.00000000    0.75000000    0.25000000
    0.00000000    0.75000000    0.50000000
    0.00000000    0.75000000    0.75000000
    0.25000000    0.00000000    0.00000000
    0.25000000    0.00000000    0.25000000
    0.25000000    0.00000000    0.50000000
    0.25000000    0.00000000    0.75000000
    0.25000000    0.25000000    0.00000000
    0.25000000    0.25000000    0.25000000
    0.25000000    0.25000000    0.50000000
    0.25000000    0.25000000    0.75000000
    0.25000000    0.50000000    0.00000000
    0.25000000    0.50000000    0.25000000
    0.25000000    0.50000000    0.50000000
    0.25000000    0.50000000    0.75000000
    0.25000000    0.75000000    0.00000000
    0.25000000    0.75000000    0.25000000
    0.25000000    0.75000000    0.50000000
    0.25000000    0.75000000    0.75000000
    0.50000000    0.00000000    0.00000000
    0.50000000    0.00000000    0.25000000
    0.50000000    0.00000000    0.50000000
    0.50000000    0.00000000    0.75000000
    0.50000000    0.25000000    0.00000000
    0.50000000    0.25000000    0.25000000
    0.50000000    0.25000000    0.50000000
    0.50000000    0.25000000    0.75000000
    0.50000000    0.50000000    0.00000000
    0.50000000    0.50000000    0.25000000
    0.50000000    0.50000000    0.50000000
    0.50000000    0.50000000    0.75000000
    0.50000000    0.75000000    0.00000000
    0.50000000    0.75000000    0.25000000
    0.50000000    0.75000000    0.50000000
    0.50000000    0.75000000    0.75000000
    0.75000000    0.00000000    0.00000000
    0.75000000    0.00000000    0.25000000
    0.75000000    0.00000000    0.50000000
    0.75000000    0.00000000    0.75000000
    0.75000000    0.25000000    0.00000000
    0.75000000    0.25000000    0.25000000
    0.75000000    0.25000000    0.50000000
    0.75000000    0.25000000    0.75000000
    0.75000000    0.50000000    0.00000000
    0.75000000    0.50000000    0.25000000
    0.75000000    0.50000000    0.50000000
    0.75000000    0.50000000    0.75000000
    0.75000000    0.75000000    0.00000000
    0.75000000    0.75000000    0.25000000
    0.75000000    0.75000000    0.50000000
    0.75000000    0.75000000    0.75000000
end kpoints

begin projections
    34
   0.20075    0.19953    0.40028     2  1  1
    0.0000000  0.0000000  1.0000000   1.0000000  0.0000000  0.0000000    1.00
   0.20075    0.19953    0.40028     2  2  1
    0.0000000  0.0000000  1.0000000   1.0000000  0.0000000  0.0000000    1.00
   0.20075    0.19953    0.40028     2  3  1
    0.0000000  0.0000000  1.0000000   1.0000000  0.0000000  0.0000000    1.00
   0.20075    0.19953    0.40028     2  4  1
    0.0000000  0.0000000  1.0000000   1.0000000  0.0000000  0.0000000    1.00
   0.20075    0.19953    0.40028     2  5  1
    0.0000000  0.0000000  1.0000000   1.0000000  0.0000000  0.0000000    1.00
   0.79925    0.80047    0.59972     2  1  1
    0.0000000  0.0000000  1.0000000   1.0000000  0.0000000  0.0000000    1.00
   0.79925    0.80047    0.59972     2  2  1
    0.0000000  0.0000000  1.0000000   1.0000000  0.0000000  0.0000000    1.00
   0.79925    0.80047    0.59972     2  3  1
    0.0000000  0.0000000  1.0000000   1.0000000  0.0000000  0.0000000    1.00
   0.79925    0.80047    0.59972     2  4  1
    0.0000000  0.0000000  1.0000000   1.0000000  0.0000000  0.0000000    1.00
   0.79925    0.80047    0.59972     2  5  1
    0.0000000  0.0000000  1.0000000   1.0000000  0.0000000  0.0000000    1.00
   0.59980    0.59972    0.19953     2  1  1
    0.0000000  0.0000000  1.0000000   1.0000000  0.0000000  0.0000000    1.00
   0.59980    0.59972    0.19953     2  2  1
    0.0000000  0.0000000  1.0000000   1.0000000  0.0000000  0.0000000    1.00
   0.59980    0.59972    0.19953     2  3  1
    0.0000000  0.0000000  1.0000000   1.0000000  0.0000000  0.0000000    1.00
   0.59980    0.59972    0.19953     2  4  1
    0.0000000  0.0000000  1.0000000   1.0000000  0.0000000  0.0000000    1.00
   0.59980    0.59972    0.19953     2  5  1
    0.0000000  0.0000000  1.0000000   1.0000000  0.0000000  0.0000000    1.00
   0.40020    0.40028    0.80047     2  1  1
    0.0000000  0.0000000  1.0000000   1.0000000  0.0000000  0.0000000    1.00
   0.40020    0.40028    0.80047     2  2  1
    0.0000000  0.0000000  1.0000000   1.0000000  0.0000000  0.0000000    1.00
   0.40020    0.40028    0.80047     2  3  1
    0.0000000  0.0000000  1.0000000   1.0000000  0.0000000  0.0000000    1.00
   0.40020    0.40028    0.80047     2  4  1
    0.0000000  0.0000000  1.0000000   1.0000000  0.0000000  0.0000000    1.00
   0.40020    0.40028    0.80047     2  5  1
    0.0000000  0.0000000  1.0000000   1.0000000  0.0000000  0.0000000    1.00
   0.00000    0.00000    0.00000     2  1  1
    0.0000000  0.0000000  1.0000000   1.0000000  0.0000000  0.0000000    1.00
   0.00000    0.00000    0.00000     2  2  1
    0.0000000  0.0000000  1.0000000   1.0000000  0.0000000  0.0000000    1.00
   0.00000    0.00000    0.00000     2  3  1
    0.0000000  0.0000000  1.0000000   1.0000000  0.0000000  0.0000000    1.00
   0.00000    0.00000    0.00000     2  4  1
    0.0000000  0.0000000  1.0000000   1.0000000  0.0000000  0.0000000    1.00
   0.00000    0.00000    0.00000     2  5  1
    0.0000000  0.0000000  1.0000000   1.0000000  0.0000000  0.0000000    1.00
   0.00000    0.50000    0.50000     0  1  1
    0.0000000  0.0000000  1.0000000   1.0000000  0.0000000  0.0000000    1.00
   0.39411    0.40888    0.43235     0  1  1
    0.0000000  0.0000000  1.0000000   1.0000000  0.0000000  0.0000000    1.00
   0.60589    0.59112    0.56765     0  1  1
    0.0000000  0.0000000  1.0000000   1.0000000  0.0000000  0.0000000    1.00
   0.84124    0.56765    0.03824     0  1  1
    0.0000000  0.0000000  1.0000000   1.0000000  0.0000000  0.0000000    1.00
   0.15876    0.43235    0.96176     0  1  1
    0.0000000  0.0000000  1.0000000   1.0000000  0.0000000  0.0000000    1.00
   0.60589    0.96176    0.19701     0  1  1
    0.0000000  0.0000000  1.0000000   1.0000000  0.0000000  0.0000000    1.00
   0.39411    0.03824    0.80299     0  1  1
    0.0000000  0.0000000  1.0000000   1.0000000  0.0000000  0.0000000    1.00
   0.15876    0.80299    0.59112     0  1  1
    0.0000000  0.0000000  1.0000000   1.0000000  0.0000000  0.0000000    1.00
   0.84124    0.19701    0.40888     0  1  1
    0.0000000  0.0000000  1.0000000   1.0000000  0.0000000  0.0000000    1.00
end projections

begin nnkpts
  12
       1       6      0   0   0
       1      17      0   0   0
       1       2      0   0   0
       1       5      0   0   0
       1      21      0   0   0
       1      50     -1   0   0
       1      16      0  -1  -1
       1      49     -1   0   0
       1       4      0   0  -1
       1      13      0  -1   0
       1      61     -1  -1   0
       1      20      0   0  -1
       2       7      0   0   0
       2      18      0   0   0
       2       3      0   0   0
       2       6      0   0   0
       2      22      0   0   0
       2      51     -1   0   0
       2      13      0  -1   0
       2      50     -1   0   0
       2       1      0   0   0
       2      14      0  -1   0
       2      62     -1  -1   0
       2      17      0   0   0
       3       8      0   0   0
       3      19      0   0   0
       3       4      0   0   0
       3       7      0   0   0
       3      23      0   0   0
       3      52     -1   0   0
       3      14      0  -1   0
       3      51     -1   0   0
       3       2      0   0   0
       3      15      0  -1   0
       3      63     -1  -1   0
       3      18      0   0   0
       4       5      0   0   1
       4      20      0   0   0
       4       1      0   0   1
       4       8      0   0   0
       4      24      0   0   0
       4      49     -1   0   1
       4      15      0  -1   0
       4      52     -1   0   0
       4       3      0   0   0
       4      16      0  -1   0
       4      64     -1  -1   0
       4      19      0   0   0
       5      10      0   0   0
       5      21      0   0   0
       5       6      0   0   0
       5       9      0   0   0
       5      25      0   0   0
       5      54     -1   0   0
       5       4      0   0  -1
       5      53     -1   0   0
       5       8      0   0  -1
       5       1      0   0   0
       5      49     -1   0   0
       5      24      0   0  -1
       6      11      0   0   0
       6      22      0   0   0
       6       7      0   0   0
       6      10      0   0   0
       6      26      0   0   0
       6      55     -1   0   0
       6       1      0   0   0
       6      54     -1   0   0
       6       5      0   0   0
       6       2      0   0   0
       6      50     -1   0   0
       6      21      0   0   0
       7      12      0   0   0
       7      23      0   0   0
       7       8      0   0   0
       7      11      0   0   0
       7      27      0   0   0
       7      56     -1   0   0
       7       2      0   0   0
       7      55     -1   0   0
       7       6      0   0   0
       7       3      0   0   0
       7      51     -1   0   0
       7      22      0   0   0
       8       9      0   0   1
       8      24      0   0   0
       8       5      0   0   1
       8      12      0   0   0
       8      28      0   0   0
       8      53     -1   0   1
       8       3      0   0   0
       8      56     -1   0   0
       8       7      0   0   0
       8       4      0   0   0
       8      52     -1   0   0
       8      23      0   0   0
       9      14      0   0   0
       9      25      0   0   0
       9      10      0   0   0
       9      13      0   0   0
       9      29      0   0   0
       9      58     -1   0   0
       9       8      0   0  -1
       9      57     -1   0   0
       9      12      0   0  -1
       9       5      0   0   0
       9      53     -1   0   0
       9      28      0   0  -1
      10      15      0   0   0
      10      26      0   0   0
      10      11      0   0   0
      10      14      0   0   0
      10      30      0   0   0
      10      59     -1   0   0
      10       5      0   0   0
      10      58     -1   0   0
      10       9      0   0   0
      10       6      0   0   0
      10      54     -1   0   0
      10      25      0   0   0
      11      16      0   0   0
      11      27      0   0   0
      11      12      0   0   0
      11      15      0   0   0
      11      31      0   0   0
      11      60     -1   0   0
      11       6      0   0   0
      11      59     -1   0   0
      11      10      0   0   0
      11       7      0   0   0
      11      55     -1   0   0
      11      26      0   0   0
      12      13      0   0   1
      12      28      0   0   0
      12       9      0   0   1
      12      16      0   0   0
      12      32      0   0   0
      12      57     -1   0   1
      12       7      0   0   0
      12      60     -1   0   0
      12      11      0   0   0
      12       8      0   0   0
      12      56     -1   0   0
      12      27      0   0   0
      13       2      0   1   0
      13      29      0   0   0
      13      14      0   0   0
      13       1      0   1   0
      13      17      0   1   0
      13      62     -1   0   0
      13      12      0   0  -1
      13      61     -1   0   0
      13      16      0   0  -1
      13       9      0   0   0
      13      57     -1   0   0
      13      32      0   0  -1
      14       3      0   1   0
      14      30      0   0   0
      14      15      0   0   0
      14       2      0   1   0
      14      18      0   1   0
      14      63     -1   0   0
      14       9      0   0   0
      14      62     -1   0   0
      14      13      0   0   0
      14      10      0   0   0
      14      58     -1   0   0
      14      29      0   0   0
      15       4      0   1   0
      15      31      0   0   0
      15      16      0   0   0
      15       3      0   1   0
      15      19      0   1   0
      15      64     -1   0   0
      15      10      0   0   0
      15      63     -1   0   0
      15      14      0   0   0
      15      11      0   0   0
      15      59     -1   0   0
      15      30      0   0   0
      16       1      0   1   1
      16      32      0   0   0
      16      13      0   0   1
      16       4      0   1   0
      16      20      0   1   0
      16      61     -1   0   1
      16      11      0   0   0
      16      64     -1   0   0
      16      15      0   0   0
      16      12      0   0   0
      16      60     -1   0   0
      16      31      0   0   0
      17      22      0   0   0
      17      33      0   0   0
      17      18      0   0   0
      17      21      0   0   0
      17      37      0   0   0
      17       2      0   0   0
      17      32      0  -1  -1
      17       1      0   0   0
      17      20      0   0  -1
      17      29      0  -1   0
      17      13      0  -1   0
      17      36      0   0  -1
      18      23      0   0   0
      18      34      0   0   0
      18      19      0   0   0
      18      22      0   0   0
      18      38      0   0   0
      18       3      0   0   0
      18      29      0  -1   0
      18       2      0   0   0
      18      17      0   0   0
      18      30      0  -1   0
      18      14      0  -1   0
      18      33      0   0   0
      19      24      0   0   0
      19      35      0   0   0
      19      20      0   0   0
      19      23      0   0   0
      19      39      0   0   0
      19       4      0   0   0
      19      30      0  -1   0
      19       3      0   0   0
      19      18      0   0   0
      19      31      0  -1   0
      19      15      0  -1   0
      19      34      0   0   0
      20      21      0   0   1
      20      36      0   0   0
      20      17      0   0   1
      20      24      0   0   0
      20      40      0   0   0
      20       1      0   0   1
      20      31      0  -1   0
      20       4      0   0   0
      20      19      0   0   0
      20      32      0  -1   0
      20      16      0  -1   0
      20      35      0   0   0
      21      26      0   0   0
      21      37      0   0   0
      21      22      0   0   0
      21      25      0   0   0
      21      41      0   0   0
      21       6      0   0   0
      21      20      0   0  -1
      21       5      0   0   0
      21      24      0   0  -1
      21      17      0   0   0
      21       1      0   0   0
      21      40      0   0  -1
      22      27      0   0   0
      22      38      0   0   0
      22      23      0   0   0
      22      26      0   0   0
      22      42      0   0   0
      22       7      0   0   0
      22      17      0   0   0
      22       6      0   0   0
      22      21      0   0   0
      22      18      0   0   0
      22       2      0   0   0
      22      37      0   0   0
      23      28      0   0   0
      23      39      0   0   0
      23      24      0   0   0
      23      27      0   0   0
      23      43      0   0   0
      23       8      0   0   0
      23      18      0   0   0
      23       7      0   0   0
      23      22      0   0   0
      23      19      0   0   0
      23       3      0   0   0
      23      38      0   0   0
      24      25      0   0   1
      24      40      0   0   0
      24      21      0   0   1
      24      28      0   0   0
      24      44      0   0   0
      24       5      0   0   1
      24      19      0   0   0
      24       8      0   0   0
      24      23      0   0   0
      24      20      0   0   0
      24       4      0   0   0
      24      39      0   0   0
      25      30      0   0   0
      25      41      0   0   0
      25      26      0   0   0
      25      29      0   0   0
      25      45      0   0   0
      25      10      0   0   0
      25      24      0   0  -1
      25       9      0   0   0
      25      28      0   0  -1
      25      21      0   0   0
      25       5      0   0   0
      25      44      0   0  -1
      26      31      0   0   0
      26      42      0   0   0
      26      27      0   0   0
      26      30      0   0   0
      26      46      0   0   0
      26      11      0   0   0
      26      21      0   0   0
      26      10      0   0   0
      26      25      0   0   0
      26      22      0   0   0
      26       6      0   0   0
      26      41      0   0   0
      27      32      0   0   0
      27      43      0   0   0
      27      28      0   0   0
      27      31      0   0   0
      27      47      0   0   0
      27      12      0   0   0
      27      22      0   0   0
      27      11      0   0   0
      27      26      0   0   0
      27      23      0   0   0
      27       7      0   0   0
      27      42      0   0   0
      28      29      0   0   1
      28      44      0   0   0
      28      25      0   0   1
      28      32      0   0   0
      28      48      0   0   0
      28       9      0   0   1
      28      23      0   0   0
      28      12      0   0   0
      28      27      0   0   0
      28      24      0   0   0
      28       8      0   0   0
      28      43      0   0   0
      29      18      0   1   0
      29      45      0   0   0
      29      30      0   0   0
      29      17      0   1   0
      29      33      0   1   0
      29      14      0   0   0
      29      28      0   0  -1
      29      13      0   0   0
      29      32      0   0  -1
      29      25      0   0   0
      29       9      0   0   0
      29      48      0   0  -1
      30      19      0   1   0
      30      46      0   0   0
      30      31      0   0   0
      30      18      0   1   0
      30      34      0   1   0
      30      15      0   0   0
      30      25      0   0   0
      30      14      0   0   0
      30      29      0   0   0
      30      26      0   0   0
      30      10      0   0   0
      30      45      0   0   0
      31      20      0   1   0
      31      47      0   0   0
      31      32      0   0   0
      31      19      0   1   0
      31      35      0   1   0
      31      16      0   0   0
      31      26      0   0   0
      31      15      0   0   0
      31      30      0   0   0
      31      27      0   0   0
      31      11      0   0   0
      31      46      0   0   0
      32      17      0   1   1
      32      48      0   0   0
      32      29      0   0   1
      32      20      0   1   0
      32      36      0   1   0
      32      13      0   0   1
      32      27      0   0   0
      32      16      0   0   0
      32      31      0   0   0
      32      28      0   0   0
      32      12      0   0   0
      32      47      0   0   0
      33      38      0   0   0
      33      49      0   0   0
      33      34      0   0   0
      33      37      0   0   0
      33      53      0   0   0
      33      18      0   0   0
      33      48      0  -1  -1
      33      17      0   0   0
      33      36      0   0  -1
      33      45      0  -1   0
      33      29      0  -1   0
      33      52      0   0  -1
      34      39      0   0   0
      34      50      0   0   0
      34      35      0   0   0
      34      38      0   0   0
      34      54      0   0   0
      34      19      0   0   0
      34      45      0  -1   0
      34      18      0   0   0
      34      33      0   0   0
      34      46      0  -1   0
      34      30      0  -1   0
      34      49      0   0   0
      35      40      0   0   0
      35      51      0   0   0
      35      36      0   0   0
      35      39      0   0   0
      35      55      0   0   0
      35      20      0   0   0
      35      46      0  -1   0
      35      19      0   0   0
      35      34      0   0   0
      35      47      0  -1   0
      35      31      0  -1   0
      35      50      0   0   0
      36      37      0   0   1
      36      52      0   0   0
      36      33      0   0   1
      36      40      0   0   0
      36      56      0   0   0
      36      17      0   0   1
      36      47      0  -1   0
      36      20      0   0   0
      36      35      0   0   0
      36      48      0  -1   0
      36      32      0  -1   0
      36      51      0   0   0
      37      42      0   0   0
      37      53      0   0   0
      37      38      0   0   0
      37      41      0   0   0
      37      57      0   0   0
      37      22      0   0   0
      37      36      0   0  -1
      37      21      0   0   0
      37      40      0   0  -1
      37      33      0   0   0
      37      17      0   0   0
      37      56      0   0  -1
      38      43      0   0   0
      38      54      0   0   0
      38      39      0   0   0
      38      42      0   0   0
      38      58      0   0   0
      38      23      0   0   0
      38      33      0   0   0
      38      22      0   0   0
      38      37      0   0   0
      38      34      0   0   0
      38      18      0   0   0
      38      53      0   0   0
      39      44      0   0   0
      39      55      0   0   0
      39      40      0   0   0
      39      43      0   0   0
      39      59      0   0   0
      39      24      0   0   0
      39      34      0   0   0
      39      23      0   0   0
      39      38      0   0   0
      39      35      0   0   0
      39      19      0   0   0
      39      54      0   0   0
      40      41      0   0   1
      40      56      0   0   0
      40      37      0   0   1
      40      44      0   0   0
      40      60      0   0   0
      40      21      0   0   1
      40      35      0   0   0
      40      24      0   0   0
      40      39      0   0   0
      40      36      0   0   0
      40      20      0   0   0
      40      55      0   0   0
      41      46      0   0   0
      41      57      0   0   0
      41      42      0   0   0
      41      45      0   0   0
      41      61      0   0   0
      41      26      0   0   0
      41      40      0   0  -1
      41      25      0   0   0
      41      44      0   0  -1
      41      37      0   0   0
      41      21      0   0   0
      41      60      0   0  -1
      42      47      0   0   0
      42      58      0   0   0
      42      43      0   0   0
      42      46      0   0   0
      42      62      0   0   0
      42      27      0   0   0
      42      37      0   0   0
      42      26      0   0   0
      42      41      0   0   0
      42      38      0   0   0
      42      22      0   0   0
      42      57      0   0   0
      43      48      0   0   0
      43      59      0   0   0
      43      44      0   0   0
      43      47      0   0   0
      43      63      0   0   0
      43      28      0   0   0
      43      38      0   0   0
      43      27      0   0   0
      43      42      0   0   0
      43      39      0   0   0
      43      23      0   0   0
      43      58      0   0   0
      44      45      0   0   1
      44      60      0   0   0
      44      41      0   0   1
      44      48      0   0   0
      44      64      0   0   0
      44      25      0   0   1
      44      39      0   0   0
      44      28      0   0   0
      44      43      0   0   0
      44      40      0   0   0
      44      24      0   0   0
      44      59      0   0   0
      45      34      0   1   0
      45      61      0   0   0
      45      46      0   0   0
      45      33      0   1   0
      45      49      0   1   0
      45      30      0   0   0
      45      44      0   0  -1
      45      29      0   0   0
      45      48      0   0  -1
      45      41      0   0   0
      45      25      0   0   0
      45      64      0   0  -1
      46      35      0   1   0
      46      62      0   0   0
      46      47      0   0   0
      46      34      0   1   0
      46      50      0   1   0
      46      31      0   0   0
      46      41      0   0   0
      46      30      0   0   0
      46      45      0   0   0
      46      42      0   0   0
      46      26      0   0   0
      46      61      0   0   0
      47      36      0   1   0
      47      63      0   0   0
      47      48      0   0   0
      47      35      0   1   0
      47      51      0   1   0
      47      32      0   0   0
      47      42      0   0   0
      47      31      0   0   0
      47      46      0   0   0
      47      43      0   0   0
      47      27      0   0   0
      47      62      0   0   0
      48      33      0   1   1
      48      64      0   0   0
      48      45      0   0   1
      48      36      0   1   0
      48      52      0   1   0
      48      29      0   0   1
      48      43      0   0   0
      48      32      0   0   0
      48      47      0   0   0
      48      44      0   0   0
      48      28      0   0   0
      48      63      0   0   0
      49      54      0   0   0
      49       1      1   0   0
      49      50      0   0   0
      49      53      0   0   0
      49       5      1   0   0
      49      34      0   0   0
      49      64      0  -1  -1
      49      33      0   0   0
      49      52      0   0  -1
      49      61      0  -1   0
      49      45      0  -1   0
      49       4      1   0  -1
      50      55      0   0   0
      50       2      1   0   0
      50      51      0   0   0
      50      54      0   0   0
      50       6      1   0   0
      50      35      0   0   0
      50      61      0  -1   0
      50      34      0   0   0
      50      49      0   0   0
      50      62      0  -1   0
      50      46      0  -1   0
      50       1      1   0   0
      51      56      0   0   0
      51       3      1   0   0
      51      52      0   0   0
      51      55      0   0   0
      51       7      1   0   0
      51      36      0   0   0
      51      62      0  -1   0
      51      35      0   0   0
      51      50      0   0   0
      51      63      0  -1   0
      51      47      0  -1   0
      51       2      1   0   0
      52      53      0   0   1
      52       4      1   0   0
      52      49      0   0   1
      52      56      0   0   0
      52       8      1   0   0
      52      33      0   0   1
      52      63      0  -1   0
      52      36      0   0   0
      52      51      0   0   0
      52      64      0  -1   0
      52      48      0  -1   0
      52       3      1   0   0
      53      58      0   0   0
      53       5      1   0   0
      53      54      0   0   0
      53      57      0   0   0
      53       9      1   0   0
      53      38      0   0   0
      53      52      0   0  -1
      53      37      0   0   0
      53      56      0   0  -1
      53      49      0   0   0
      53      33      0   0   0
      53       8      1   0  -1
      54      59      0   0   0
      54       6      1   0   0
      54      55      0   0   0
      54      58      0   0   0
      54      10      1   0   0
      54      39      0   0   0
      54      49      0   0   0
      54      38      0   0   0
      54      53      0   0   0
      54      50      0   0   0
      54      34      0   0   0
      54       5      1   0   0
      55      60      0   0   0
      55       7      1   0   0
      55      56      0   0   0
      55      59      0   0   0
      55      11      1   0   0
      55      40      0   0   0
      55      50      0   0   0
      55      39      0   0   0
      55      54      0   0   0
      55      51      0   0   0
      55      35      0   0   0
      55       6      1   0   0
      56      57      0   0   1
      56       8      1   0   0
      56      53      0   0   1
      56      60      0   0   0
      56      12      1   0   0
      56      37      0   0   1
      56      51      0   0   0
      56      40      0   0   0
      56      55      0   0   0
      56      52      0   0   0
      56      36      0   0   0
      56       7      1   0   0
      57      62      0   0   0
      57       9      1   0   0
      57      58      0   0   0
      57      61      0   0   0
      57      13      1   0   0
      57      42      0   0   0
      57      56      0   0  -1
      57      41      0   0   0
      57      60      0   0  -1
      57      53      0   0   0
      57      37      0   0   0
      57      12      1   0  -1
      58      63      0   0   0
      58      10      1   0   0
      58      59      0   0   0
      58      62      0   0   0
      58      14      1   0   0
      58      43      0   0   0
      58      53      0   0   0
      58      42      0   0   0
      58      57      0   0   0
      58      54      0   0   0
      58      38      0   0   0
      58       9      1   0   0
      59      64      0   0   0
      59      11      1   0   0
      59      60      0   0   0
      59      63      0   0   0
      59      15      1   0   0
      59      44      0   0   0
      59      54      0   0   0
      59      43      0   0   0
      59      58      0   0   0
      59      55      0   0   0
      59      39      0   0   0
      59      10      1   0   0
      60      61      0   0   1
      60      12      1   0   0
      60      57      0   0   1
      60      64      0   0   0
      60      16      1   0   0
      60      41      0   0   1
      60      55      0   0   0
      60      44      0   0   0
      60      59      0   0   0
      60      56      0   0   0
      60      40      0   0   0
      60      11      1   0   0
      61      50      0   1   0
      61      13      1   0   0
      61      62      0   0   0
      61      49      0   1   0
      61       1      1   1   0
      61      46      0   0   0
      61      60      0   0  -1
      61      45      0   0   0
      61      64      0   0  -1
      61      57      0   0   0
      61      41      0   0   0
      61      16      1   0  -1
      62      51      0   1   0
      62      14      1   0   0
      62      63      0   0   0
      62      50      0   1   0
      62       2      1   1   0
      62      47      0   0   0
      62      57      0   0   0
      62      46      0   0   0
      62      61      0   0   0
      62      58      0   0   0
      62      42      0   0   0
      62      13      1   0   0
      63      52      0   1   0
      63      15      1   0   0
      63      64      0   0   0
      63      51      0   1   0
      63       3      1   1   0
      63      48      0   0   0
      63      58      0   0   0
      63      47      0   0   0
      63      62      0   0   0
      63      59      0   0   0
      63      43      0   0   0
      63      14      1   0   0
      64      49      0   1   1
      64      16      1   0   0
      64      61      0   0   1
      64      52      0   1   0
      64       4      1   1   0
      64      45      0   0   1
      64      59      0   0   0
      64      48      0   0   0
      64      63      0   0   0
      64      60      0   0   0
      64      44      0   0   0
      64      15      1   0   0
end nnkpts

begin exclude_bands
   0
end exclude_bands
