
     Program PWSCF v.7.3.1 starts on  5Aug2024 at 13:45:41 

     This program is part of the open-source Quantum ESPRESSO suite
     for quantum simulation of materials; please cite
         "P. Giannozzi et al., J. Phys.:Condens. Matter 21 395502 (2009);
         "P. Giannozzi et al., J. Phys.:Condens. Matter 29 465901 (2017);
         "P. Giannozzi et al., J. Chem. Phys. 152 154105 (2020);
          URL http://www.quantum-espresso.org", 
     in publications or presentations arising from this work. More details at
     http://www.quantum-espresso.org/quote

     Parallel version (MPI), running on     8 processors

     MPI processes distributed on     1 nodes
     12047 MiB available memory on the printing compute node when the environment starts

     Reading input from ./tmp1/Ni4W.scf.in
Warning: card &CELL ignored
Warning: card / ignored
Warning: card &FCP ignored
Warning: card / ignored
Warning: card &RISM ignored
Warning: card / ignored

     Current dimensions of program PWSCF are:
     Max number of different atomic species (ntypx) = 10
     Max number of k-points (npk) =  40000
     Max angular momentum in pseudopotentials (lmaxx) =  4
     Message from routine setup:
     using ibrav=0 with symmetry is DISCOURAGED, use correct ibrav instead

     R & G space division:  proc/nbgrp/npool/nimage =       8
     Subspace diagonalization in iterative solution of the eigenvalue problem:
     a serial algorithm will be used


     Parallelization info
     --------------------
     sticks:   dense  smooth     PW     G-vecs:    dense   smooth      PW
     Min         137     137     43                 2357     2357     422
     Max         138     138     44                 2359     2359     423
     Sum        1097    1097    349                18859    18859    3381

     Using Slab Decomposition



     bravais-lattice index     =            0
     lattice parameter (alat)  =       8.3687  a.u.
     unit-cell volume          =     394.5250 (a.u.)^3
     number of atoms/cell      =            5
     number of atomic types    =            2
     number of electrons       =        86.00
     number of Kohn-Sham states=           52
     kinetic-energy cutoff     =      50.0000  Ry
     charge density cutoff     =     200.0000  Ry
     scf convergence threshold =      1.0E-10
     mixing beta               =       0.7000
     number of iterations used =            8  plain     mixing
     Exchange-correlation= PBE
                           (   1   4   3   4   0   0   0)

     celldm(1)=   8.368705  celldm(2)=   0.000000  celldm(3)=   0.000000
     celldm(4)=   0.000000  celldm(5)=   0.000000  celldm(6)=   0.000000

     crystal axes: (cart. coord. in units of alat)
               a(1) = (  -0.647737   0.647737   0.401091 )  
               a(2) = (   0.647737   0.647737   0.401091 )  
               a(3) = (   0.647737   0.647737  -0.401091 )  

     reciprocal axes: (cart. coord. in units 2 pi/alat)
               b(1) = ( -0.771918  0.771918  0.000000 )  
               b(2) = (  0.771918  0.000000  1.246601 )  
               b(3) = (  0.000000  0.771918 -1.246601 )  


     PseudoPot. # 1 for Ni read from file:
     ../fromEleni/Ni4W/Ni.upf
     MD5 check sum: 14a7e289c5fff9cacaba393040e62f02
     Pseudo is Norm-conserving + core correction, Zval = 18.0
     Generated using ONCVPSP code by D. R. Hamann
     Using radial grid of 1372 points,  6 beta functions with: 
                l(1) =   0
                l(2) =   0
                l(3) =   1
                l(4) =   1
                l(5) =   2
                l(6) =   2

     PseudoPot. # 2 for W  read from file:
     ../fromEleni/Ni4W/W.upf
     MD5 check sum: 75b1d432d85d028982bb81b068264ebf
     Pseudo is Norm-conserving + core correction, Zval = 14.0
     Generated using ONCVPSP code by D. R. Hamann
     Using radial grid of 1396 points,  8 beta functions with: 
                l(1) =   0
                l(2) =   0
                l(3) =   1
                l(4) =   1
                l(5) =   2
                l(6) =   2
                l(7) =   3
                l(8) =   3

     atomic species   valence    mass     pseudopotential
     Ni               18.00    58.69340     Ni( 1.00)
     W                14.00   183.84000     W ( 1.00)

      8 Sym. Ops., with inversion, found



   Cartesian axes

     site n.     atom                  positions (alat units)
         1        Ni     tau(   1) = (   0.2584810   0.5185467   0.0000000  )
         2        Ni     tau(   2) = (   0.1291902   0.9062180   0.4010906  )
         3        Ni     tau(   3) = (   1.1662837   0.3892559   0.4010906  )
         4        Ni     tau(   4) = (   1.0369928   0.7769272  -0.0000000  )
         5        W      tau(   5) = (   0.0000000   0.0000000   0.0000000  )

     number of k points=    78  Marzari-Vanderbilt smearing, width (Ry)=  0.0200
                       cart. coord. in units 2pi/alat
        k(    1) = (   0.0000000   0.0000000   0.0000000), wk =   0.0039062
        k(    2) = (   0.0000000   0.0964898  -0.1558251), wk =   0.0312500
        k(    3) = (   0.0000000   0.1929796  -0.3116502), wk =   0.0312500
        k(    4) = (   0.0000000   0.2894694  -0.4674754), wk =   0.0312500
        k(    5) = (   0.0000000  -0.3859592   0.6233005), wk =   0.0156250
        k(    6) = (   0.0964898   0.0964898   0.0000000), wk =   0.0156250
        k(    7) = (   0.0964898   0.1929796  -0.1558251), wk =   0.0312500
        k(    8) = (   0.0964898   0.2894694  -0.3116502), wk =   0.0312500
        k(    9) = (   0.0964898  -0.3859592   0.7791256), wk =   0.0312500
        k(   10) = (   0.0964898  -0.2894694   0.6233005), wk =   0.0312500
        k(   11) = (   0.0964898  -0.1929796   0.4674754), wk =   0.0312500
        k(   12) = (   0.0964898  -0.0964898   0.3116502), wk =   0.0312500
        k(   13) = (   0.1929796   0.1929796   0.0000000), wk =   0.0156250
        k(   14) = (   0.1929796   0.2894694  -0.1558251), wk =   0.0312500
        k(   15) = (   0.1929796  -0.3859592   0.9349507), wk =   0.0312500
        k(   16) = (   0.1929796  -0.2894694   0.7791256), wk =   0.0312500
        k(   17) = (   0.1929796  -0.1929796   0.6233005), wk =   0.0312500
        k(   18) = (   0.2894694   0.2894694   0.0000000), wk =   0.0156250
        k(   19) = (   0.2894694  -0.3859592   1.0907759), wk =   0.0312500
        k(   20) = (   0.2894694  -0.2894694   0.9349507), wk =   0.0312500
        k(   21) = (  -0.3859592  -0.3859592   0.0000000), wk =   0.0078125
        k(   22) = (   0.0000000   0.1929796   0.0000000), wk =   0.0156250
        k(   23) = (   0.0000000   0.2894694  -0.1558251), wk =   0.0312500
        k(   24) = (   0.0000000   0.3859592  -0.3116502), wk =   0.0312500
        k(   25) = (   0.0000000  -0.2894694   0.7791256), wk =   0.0312500
        k(   26) = (   0.0000000  -0.1929796   0.6233005), wk =   0.0312500
        k(   27) = (   0.0000000  -0.0964898   0.4674754), wk =   0.0312500
        k(   28) = (   0.0000000   0.0000000   0.3116502), wk =   0.0078125
        k(   29) = (   0.0964898   0.2894694   0.0000000), wk =   0.0156250
        k(   30) = (   0.0964898   0.3859592  -0.1558251), wk =   0.0312500
        k(   31) = (   0.0964898  -0.2894694   0.9349507), wk =   0.0312500
        k(   32) = (   0.0964898  -0.1929796   0.7791256), wk =   0.0312500
        k(   33) = (   0.0964898  -0.0964898   0.6233005), wk =   0.0312500
        k(   34) = (   0.1929796   0.1929796   0.3116502), wk =   0.0312500
        k(   35) = (   0.1929796   0.3859592   0.0000000), wk =   0.0156250
        k(   36) = (   0.1929796  -0.2894694   1.0907759), wk =   0.0312500
        k(   37) = (   0.1929796  -0.1929796   0.9349507), wk =   0.0312500
        k(   38) = (  -0.4824489   0.1929796  -0.7791256), wk =   0.0312500
        k(   39) = (  -0.4824489   0.2894694  -0.9349507), wk =   0.0312500
        k(   40) = (  -0.4824489  -0.2894694   0.0000000), wk =   0.0156250
        k(   41) = (  -0.3859592   0.1929796  -0.6233005), wk =   0.0312500
        k(   42) = (  -0.3859592   0.2894694  -0.7791256), wk =   0.0312500
        k(   43) = (  -0.3859592   0.3859592  -0.9349507), wk =   0.0156250
        k(   44) = (  -0.2894694   0.2894694  -0.6233005), wk =   0.0312500
        k(   45) = (   0.0000000   0.3859592   0.0000000), wk =   0.0156250
        k(   46) = (   0.0000000   0.4824489  -0.1558251), wk =   0.0312500
        k(   47) = (   0.0000000  -0.1929796   0.9349507), wk =   0.0312500
        k(   48) = (   0.0000000  -0.0964898   0.7791256), wk =   0.0312500
        k(   49) = (   0.0000000   0.0000000   0.6233005), wk =   0.0078125
        k(   50) = (   0.0964898   0.4824489   0.0000000), wk =   0.0156250
        k(   51) = (   0.0964898  -0.1929796   1.0907759), wk =   0.0312500
        k(   52) = (   0.0964898  -0.0964898   0.9349507), wk =   0.0312500
        k(   53) = (  -0.5789387  -0.1929796   0.0000000), wk =   0.0156250
        k(   54) = (  -0.3859592   0.3859592  -0.6233005), wk =   0.0078125
        k(   55) = (   0.0000000   0.5789387   0.0000000), wk =   0.0156250
        k(   56) = (   0.0000000  -0.0964898   1.0907759), wk =   0.0312500
        k(   57) = (   0.0000000   0.0000000   0.9349507), wk =   0.0078125
        k(   58) = (  -0.6754285  -0.0964898   0.0000000), wk =   0.0156250
        k(   59) = (   0.0000000  -0.7719183   0.0000000), wk =   0.0039062
        k(   60) = (   0.1929796   0.0964898   0.1558251), wk =   0.0312500
        k(   61) = (   0.2894694   0.0964898   0.3116502), wk =   0.0312500
        k(   62) = (  -0.3859592   0.0964898  -0.7791256), wk =   0.0312500
        k(   63) = (  -0.2894694   0.0964898  -0.6233005), wk =   0.0312500
        k(   64) = (  -0.1929796   0.0964898  -0.4674754), wk =   0.0312500
        k(   65) = (   0.2894694   0.1929796   0.1558251), wk =   0.0312500
        k(   66) = (  -0.3859592   0.1929796  -0.9349507), wk =   0.0312500
        k(   67) = (  -0.2894694   0.1929796  -0.7791256), wk =   0.0312500
        k(   68) = (  -0.3859592   0.2894694  -1.0907759), wk =   0.0312500
        k(   69) = (   0.2894694   0.0964898   0.0000000), wk =   0.0156250
        k(   70) = (   0.3859592   0.0964898   0.1558251), wk =   0.0312500
        k(   71) = (  -0.2894694   0.0964898  -0.9349507), wk =   0.0312500
        k(   72) = (  -0.1929796   0.0964898  -0.7791256), wk =   0.0312500
        k(   73) = (   0.3859592   0.1929796   0.0000000), wk =   0.0156250
        k(   74) = (  -0.2894694   0.1929796  -1.0907759), wk =   0.0312500
        k(   75) = (   0.1929796  -0.4824489   0.7791256), wk =   0.0312500
        k(   76) = (   0.2894694  -0.3859592   0.7791256), wk =   0.0312500
        k(   77) = (   0.4824489   0.0964898   0.0000000), wk =   0.0156250
        k(   78) = (  -0.1929796   0.0964898  -1.0907759), wk =   0.0312500

     Dense  grid:    18859 G-vectors     FFT dimensions: (  40,  40,  40)

     Estimated max dynamical RAM per process >      26.48 MB

     Estimated total dynamical RAM >     211.83 MB

     Check: negative core charge=   -0.000064

     Initial potential from superposition of free atoms

     starting charge      85.9986, renormalised to      86.0000
     Starting wfcs are random

     total cpu time spent up to now is        1.2 secs

     Self-consistent Calculation

     iteration #  1     ecut=    50.00 Ry     beta= 0.70
     CG style diagonalization
     c_bands:  1 eigenvalues not converged
     c_bands:  2 eigenvalues not converged
     c_bands:  1 eigenvalues not converged
     c_bands:  1 eigenvalues not converged
     c_bands:  1 eigenvalues not converged
     c_bands:  3 eigenvalues not converged
     c_bands:  2 eigenvalues not converged
     c_bands:  3 eigenvalues not converged
     c_bands:  2 eigenvalues not converged
     c_bands:  2 eigenvalues not converged
     c_bands:  2 eigenvalues not converged
     c_bands:  1 eigenvalues not converged
     c_bands:  2 eigenvalues not converged
     c_bands:  2 eigenvalues not converged
     c_bands:  4 eigenvalues not converged
     c_bands:  2 eigenvalues not converged
     c_bands:  1 eigenvalues not converged
     c_bands:  2 eigenvalues not converged
     c_bands:  1 eigenvalues not converged
     c_bands:  2 eigenvalues not converged
     c_bands:  2 eigenvalues not converged
     c_bands:  3 eigenvalues not converged
     c_bands:  3 eigenvalues not converged
     c_bands:  1 eigenvalues not converged
     c_bands:  2 eigenvalues not converged
     c_bands:  2 eigenvalues not converged
     c_bands:  4 eigenvalues not converged
     c_bands:  2 eigenvalues not converged
     c_bands:  1 eigenvalues not converged
     c_bands:  2 eigenvalues not converged
     c_bands:  1 eigenvalues not converged
     c_bands:  1 eigenvalues not converged
     c_bands:  1 eigenvalues not converged
     c_bands:  1 eigenvalues not converged
     c_bands:  1 eigenvalues not converged
     c_bands:  1 eigenvalues not converged
     c_bands:  3 eigenvalues not converged
     c_bands:  1 eigenvalues not converged
     c_bands:  3 eigenvalues not converged
     c_bands:  2 eigenvalues not converged
     c_bands:  1 eigenvalues not converged
     c_bands:  2 eigenvalues not converged
     c_bands:  1 eigenvalues not converged
     c_bands:  1 eigenvalues not converged
     c_bands:  2 eigenvalues not converged
     ethr =  1.00E-02,  avg # of iterations = 12.2

     total cpu time spent up to now is       13.9 secs

     total energy              =   -1484.64316498 Ry
     estimated scf accuracy    <       3.63854315 Ry

     iteration #  2     ecut=    50.00 Ry     beta= 0.70
     CG style diagonalization
     ethr =  4.23E-03,  avg # of iterations =  4.5

     total cpu time spent up to now is       17.7 secs

     total energy              =   -1486.66691642 Ry
     estimated scf accuracy    <      20.04355234 Ry

     iteration #  3     ecut=    50.00 Ry     beta= 0.70
     CG style diagonalization
     ethr =  4.23E-03,  avg # of iterations =  3.6

     total cpu time spent up to now is       20.6 secs

     total energy              =   -1487.25556432 Ry
     estimated scf accuracy    <       2.34108824 Ry

     iteration #  4     ecut=    50.00 Ry     beta= 0.70
     CG style diagonalization
     ethr =  2.72E-03,  avg # of iterations =  3.4

     total cpu time spent up to now is       23.5 secs

     total energy              =   -1487.66672624 Ry
     estimated scf accuracy    <       2.29775171 Ry

     iteration #  5     ecut=    50.00 Ry     beta= 0.70
     CG style diagonalization
     ethr =  2.67E-03,  avg # of iterations =  3.0

     total cpu time spent up to now is       26.4 secs

     total energy              =   -1487.93300159 Ry
     estimated scf accuracy    <       0.03584412 Ry

     iteration #  6     ecut=    50.00 Ry     beta= 0.70
     CG style diagonalization
     c_bands:  1 eigenvalues not converged
     c_bands:  1 eigenvalues not converged
     ethr =  4.17E-05,  avg # of iterations =  3.8

     total cpu time spent up to now is       30.3 secs

     total energy              =   -1487.91539541 Ry
     estimated scf accuracy    <       0.19338405 Ry

     iteration #  7     ecut=    50.00 Ry     beta= 0.70
     CG style diagonalization
     ethr =  4.17E-05,  avg # of iterations =  3.6

     total cpu time spent up to now is       33.1 secs

     total energy              =   -1487.94624341 Ry
     estimated scf accuracy    <       0.04364011 Ry

     iteration #  8     ecut=    50.00 Ry     beta= 0.70
     CG style diagonalization
     ethr =  4.17E-05,  avg # of iterations =  3.0

     total cpu time spent up to now is       35.4 secs

     total energy              =   -1487.95082382 Ry
     estimated scf accuracy    <       0.00003150 Ry

     iteration #  9     ecut=    50.00 Ry     beta= 0.70
     CG style diagonalization
     ethr =  3.66E-08,  avg # of iterations =  5.0

     total cpu time spent up to now is       40.1 secs

     total energy              =   -1487.95085056 Ry
     estimated scf accuracy    <       0.00026653 Ry

     iteration # 10     ecut=    50.00 Ry     beta= 0.70
     CG style diagonalization
     ethr =  3.66E-08,  avg # of iterations =  3.5

     total cpu time spent up to now is       43.4 secs

     total energy              =   -1487.95090080 Ry
     estimated scf accuracy    <       0.00009049 Ry

     iteration # 11     ecut=    50.00 Ry     beta= 0.70
     CG style diagonalization
     ethr =  3.66E-08,  avg # of iterations =  3.2

     total cpu time spent up to now is       46.4 secs

     total energy              =   -1487.95090185 Ry
     estimated scf accuracy    <       0.00002633 Ry

     iteration # 12     ecut=    50.00 Ry     beta= 0.70
     CG style diagonalization
     ethr =  3.06E-08,  avg # of iterations =  3.0

     total cpu time spent up to now is       49.0 secs

     total energy              =   -1487.95090163 Ry
     estimated scf accuracy    <       0.00000517 Ry

     iteration # 13     ecut=    50.00 Ry     beta= 0.70
     CG style diagonalization
     ethr =  6.02E-09,  avg # of iterations =  3.2

     total cpu time spent up to now is       51.9 secs

     total energy              =   -1487.95090234 Ry
     estimated scf accuracy    <       0.00000002 Ry

     iteration # 14     ecut=    50.00 Ry     beta= 0.70
     CG style diagonalization
     ethr =  1.93E-11,  avg # of iterations =  4.3

     total cpu time spent up to now is       55.4 secs

     total energy              =   -1487.95090238 Ry
     estimated scf accuracy    <          3.8E-09 Ry

     iteration # 15     ecut=    50.00 Ry     beta= 0.70
     CG style diagonalization
     ethr =  4.37E-12,  avg # of iterations =  3.5

     total cpu time spent up to now is       58.5 secs

     total energy              =   -1487.95090239 Ry
     estimated scf accuracy    <          8.4E-09 Ry

     iteration # 16     ecut=    50.00 Ry     beta= 0.70
     CG style diagonalization
     ethr =  4.37E-12,  avg # of iterations =  3.0

     total cpu time spent up to now is       61.3 secs

     total energy              =   -1487.95090238 Ry
     estimated scf accuracy    <          5.4E-09 Ry

     iteration # 17     ecut=    50.00 Ry     beta= 0.70
     CG style diagonalization
     ethr =  4.37E-12,  avg # of iterations =  3.0

     total cpu time spent up to now is       63.9 secs

     total energy              =   -1487.95090238 Ry
     estimated scf accuracy    <          1.1E-09 Ry

     iteration # 18     ecut=    50.00 Ry     beta= 0.70
     CG style diagonalization
     ethr =  1.25E-12,  avg # of iterations =  3.2

     total cpu time spent up to now is       66.8 secs

     End of self-consistent calculation

          k = 0.0000 0.0000 0.0000 (  2407 PWs)   bands (ev):

   -87.5176 -87.4840 -87.4840 -87.4838 -54.1432 -46.5835 -46.5835 -46.5477
   -46.5330 -46.4463 -46.4441 -46.4441 -46.4347 -46.4347 -46.3806 -46.3672
   -46.3425 -18.9070 -18.9070 -18.8787  10.6633  15.5550  15.6802  16.2935
    16.2935  16.4334  16.4334  16.6439  16.6626  16.9588  17.1451  17.1451
    17.2389  17.5560  17.6255  17.6255  18.3389  18.6940  18.6940  18.7646
    19.5570  19.7028  19.9597  20.9023  21.5698  21.5698  23.5469  23.5469
    24.5571  27.5403  29.0479  30.4265

          k = 0.0000 0.0965-0.1558 (  2374 PWs)   bands (ev):

   -87.5092 -87.4798 -87.4789 -87.4773 -54.1428 -46.5113 -46.4812 -46.4798
   -46.4639 -46.4192 -46.4084 -46.3958 -46.3891 -46.3482 -46.3354 -46.3205
   -46.3084 -18.9056 -18.9051 -18.8869  10.9720  15.6391  15.7347  16.0649
    16.1971  16.4482  16.4901  16.6447  16.7567  17.2297  17.3597  17.5399
    17.6112  17.6909  17.7266  17.7869  18.5659  18.7010  18.7580  18.8074
    19.4412  19.4925  20.1881  21.0638  21.1959  21.2374  23.4292  23.8493
    25.4575  26.9843  28.2875  29.1653

          k = 0.0000 0.1930-0.3117 (  2365 PWs)   bands (ev):

   -87.5041 -87.4808 -87.4777 -87.4770 -54.1425 -46.5073 -46.4855 -46.4773
   -46.4509 -46.4274 -46.3892 -46.3842 -46.3571 -46.3401 -46.3296 -46.3055
   -46.2841 -18.9084 -18.9046 -18.9038  11.8519  15.4082  15.5770  15.9468
    16.1876  16.3802  16.5061  16.7533  17.2169  17.2991  17.3905  17.7479
    17.8040  17.8758  17.9129  18.0032  18.1758  18.6065  18.6280  18.7950
    19.2545  19.4919  20.0878  20.5288  21.0384  21.2031  22.9739  23.6404
    25.2364  26.6849  27.7621  28.2947

          k = 0.0000 0.2895-0.4675 (  2355 PWs)   bands (ev):

   -87.4947 -87.4830 -87.4794 -87.4757 -54.1421 -46.4857 -46.4719 -46.4476
   -46.4377 -46.4020 -46.3743 -46.3638 -46.3488 -46.3395 -46.3237 -46.2909
   -46.2793 -18.9288 -18.9037 -18.9031  13.1421  14.8848  15.5050  15.8706
    16.3118  16.5998  16.7295  16.9203  17.1481  17.3397  17.4769  17.5480
    17.5683  17.7860  17.9878  18.1095  18.5239  18.6353  18.7671  18.8911
    19.2485  19.5729  19.8416  19.9968  21.1112  21.2831  22.1098  23.0590
    23.7222  25.8382  28.0975  28.3183

          k = 0.0000-0.3860 0.6233 (  2348 PWs)   bands (ev):

   -87.4859 -87.4851 -87.4802 -87.4769 -54.1419 -46.4649 -46.4591 -46.4504
   -46.4384 -46.3890 -46.3590 -46.3489 -46.3441 -46.3332 -46.2984 -46.2843
   -46.2512 -18.9368 -18.9030 -18.9028  14.2381  14.7081  14.9388  15.9967
    16.5299  16.5913  16.8656  16.8817  16.9950  17.2739  17.3583  17.4889
    17.6321  17.6875  17.8461  18.1721  18.6275  18.6450  18.9145  19.2110
    19.4042  19.4475  19.8460  20.0523  20.9597  21.3441  21.6709  22.5159
    23.2761  25.6297  27.7937  28.2601

          k = 0.0965 0.0965 0.0000 (  2381 PWs)   bands (ev):

   -87.5080 -87.4821 -87.4808 -87.4798 -54.1431 -46.5034 -46.4968 -46.4834
   -46.4594 -46.4555 -46.4458 -46.4371 -46.3732 -46.3642 -46.3524 -46.3413
   -46.3165 -18.9070 -18.9059 -18.8787  10.8339  15.4308  15.5602  16.0706
    16.1879  16.4446  16.4565  16.6137  16.7798  17.0618  17.1692  17.2214
    17.5425  17.6980  17.7334  18.0980  18.6627  18.7555  18.7959  18.9715
    19.4676  19.6527  20.0204  20.9310  21.4885  21.6566  22.7116  23.5983
    25.2634  27.8518  29.0786  30.0917

          k = 0.0965 0.1930-0.1558 (  2366 PWs)   bands (ev):

   -87.5048 -87.4802 -87.4780 -87.4774 -54.1429 -46.4895 -46.4814 -46.4596
   -46.4533 -46.4131 -46.4060 -46.3949 -46.3838 -46.3384 -46.3263 -46.3105
   -46.2884 -18.9074 -18.9048 -18.8867  11.3009  15.3372  15.4737  15.9189
    16.1314  16.1877  16.4815  16.7525  16.8245  17.1907  17.4661  17.5447
    17.6321  17.7636  17.8311  18.3772  18.5869  18.7208  18.7653  18.9121
    19.4409  19.5423  20.1139  21.0273  21.0727  21.4725  22.3692  23.9454
    25.6699  27.1800  28.4029  29.2878

          k = 0.0965 0.2895-0.3117 (  2359 PWs)   bands (ev):

   -87.4993 -87.4819 -87.4787 -87.4758 -54.1426 -46.4922 -46.4784 -46.4514
   -46.4345 -46.4164 -46.4024 -46.3771 -46.3526 -46.3496 -46.3051 -46.2985
   -46.2751 -18.9090 -18.9060 -18.9031  12.2948  15.2331  15.3906  15.7087
    16.1705  16.2701  16.5577  16.6794  17.1666  17.3010  17.3682  17.6333
    17.8653  17.9338  18.0471  18.1865  18.3241  18.6011  18.7540  18.9067
    19.4391  19.5935  19.9064  20.2826  21.2268  21.4058  22.2283  23.2787
    24.8265  26.8732  27.6882  28.4820

          k = 0.0965-0.3860 0.7791 (  2352 PWs)   bands (ev):

   -87.4911 -87.4826 -87.4805 -87.4762 -54.1421 -46.4787 -46.4774 -46.4478
   -46.4230 -46.3675 -46.3621 -46.3512 -46.3449 -46.3331 -46.3177 -46.2968
   -46.2872 -18.9283 -18.9046 -18.9031  13.5723  14.9045  15.4521  15.6867
    16.0900  16.5164  16.6759  16.9101  17.2202  17.3394  17.4134  17.5932
    17.6700  17.7193  17.9229  18.0634  18.5278  18.8497  18.9297  19.0603
    19.3811  19.4054  19.6227  19.9138  21.2357  21.5476  22.0316  22.4699
    23.2493  26.6415  27.4041  28.2855

          k = 0.0965-0.2895 0.6233 (  2351 PWs)   bands (ev):

   -87.4852 -87.4840 -87.4814 -87.4793 -54.1419 -46.4779 -46.4631 -46.4434
   -46.4390 -46.3989 -46.3682 -46.3530 -46.3359 -46.3285 -46.3079 -46.2954
   -46.2594 -18.9369 -18.9033 -18.9029  14.1882  14.7846  14.8825  15.9641
    16.4395  16.5430  16.8244  17.0193  17.0982  17.2974  17.4110  17.4637
    17.6614  17.7579  17.8875  18.0511  18.5531  18.7255  18.8346  19.1199
    19.2918  19.3570  19.7594  20.0143  21.1705  21.4121  21.8671  22.4675
    23.1517  25.8911  27.4585  28.3653

          k = 0.0965-0.1930 0.4675 (  2358 PWs)   bands (ev):

   -87.4961 -87.4819 -87.4795 -87.4773 -54.1421 -46.4894 -46.4770 -46.4523
   -46.4511 -46.4057 -46.3682 -46.3598 -46.3553 -46.3331 -46.3289 -46.3085
   -46.2854 -18.9288 -18.9037 -18.9028  12.8866  15.0452  15.3826  16.0055
    16.3355  16.5327  16.7780  17.0836  17.2130  17.2805  17.4485  17.6341
    17.7639  17.9534  18.0155  18.1117  18.2366  18.4663  18.6050  18.7272
    19.1044  19.5154  19.7367  20.3141  21.0737  21.1761  22.4101  23.4116
    24.2381  25.5971  27.6832  28.3995

          k = 0.0965-0.0965 0.3117 (  2363 PWs)   bands (ev):

   -87.5051 -87.4787 -87.4779 -87.4765 -54.1424 -46.4942 -46.4842 -46.4687
   -46.4368 -46.4076 -46.3877 -46.3746 -46.3584 -46.3510 -46.3335 -46.3175
   -46.2865 -18.9081 -18.9043 -18.9034  11.6961  15.5113  15.7365  15.8975
    16.2621  16.4630  16.5661  16.9427  17.0027  17.2747  17.4089  17.6983
    17.7128  17.8386  17.8961  17.9286  18.3837  18.4448  18.6471  18.7911
    19.1935  19.4647  20.2101  20.6221  20.9038  21.1949  23.2128  24.2385
    25.5495  25.9842  27.5937  28.3409

          k = 0.1930 0.1930 0.0000 (  2371 PWs)   bands (ev):

   -87.5050 -87.4837 -87.4791 -87.4761 -54.1432 -46.5269 -46.4967 -46.4630
   -46.4441 -46.4318 -46.4257 -46.3995 -46.3603 -46.3528 -46.3413 -46.3258
   -46.2756 -18.9104 -18.9046 -18.8780  11.3287  15.0821  15.1107  15.8422
    15.9308  16.2894  16.5478  16.5931  16.9107  17.1379  17.4285  17.4288
    17.6470  17.8406  17.8664  18.5621  18.6922  18.7795  18.9399  19.1272
    19.1623  19.5514  20.0295  20.9496  21.2736  21.8932  21.9271  23.5422
    25.3998  28.7101  28.8466  29.5341

          k = 0.1930 0.2895-0.1558 (  2360 PWs)   bands (ev):

   -87.4991 -87.4830 -87.4776 -87.4766 -54.1431 -46.4821 -46.4621 -46.4542
   -46.4311 -46.4178 -46.4065 -46.3951 -46.3788 -46.3293 -46.3142 -46.2907
   -46.2803 -18.9101 -18.9042 -18.8867  11.9258  14.7347  15.1808  15.7772
    15.9658  16.0315  16.5709  16.6358  16.8080  17.4051  17.4675  17.6356
    17.7231  17.9234  18.0066  18.4750  18.5729  18.7799  19.0106  19.1626
    19.4463  19.6209  19.8617  20.7422  21.0865  21.7272  21.8006  24.1536
    25.0193  26.7419  28.3741  29.9841

          k = 0.1930-0.3860 0.9350 (  2358 PWs)   bands (ev):

   -87.4962 -87.4840 -87.4783 -87.4765 -54.1427 -46.4745 -46.4697 -46.4642
   -46.4359 -46.4087 -46.3920 -46.3753 -46.3528 -46.3356 -46.3158 -46.2983
   -46.2968 -18.9090 -18.9078 -18.9029  12.9583  14.6818  15.4630  15.5237
    15.9170  16.0612  16.4202  16.7943  17.1840  17.3351  17.4925  17.6391
    17.8086  17.9091  18.1089  18.1767  18.5240  18.6241  18.9056  19.0620
    19.4474  19.5405  19.7250  20.1796  21.2862  21.6676  21.7121  23.4560
    24.4404  25.8099  27.8870  29.3324

          k = 0.1930-0.2895 0.7791 (  2346 PWs)   bands (ev):

   -87.4895 -87.4826 -87.4782 -87.4759 -54.1421 -46.4669 -46.4588 -46.4350
   -46.4301 -46.3768 -46.3630 -46.3387 -46.3236 -46.3156 -46.3054 -46.2931
   -46.2553 -18.9279 -18.9054 -18.9028  14.0456  14.9801  15.2379  15.3626
    15.9668  16.4802  16.5804  16.9561  17.4500  17.4810  17.5463  17.6406
    17.7288  17.7738  17.8761  18.0613  18.4300  18.5344  18.8714  19.0557
    19.3620  19.5457  19.6975  19.9012  21.2071  21.6485  22.0910  22.3479
    23.3067  25.9401  27.8341  28.8041

          k = 0.1930-0.1930 0.6233 (  2344 PWs)   bands (ev):

   -87.4861 -87.4835 -87.4791 -87.4757 -54.1418 -46.4694 -46.4515 -46.4315
   -46.4164 -46.3646 -46.3475 -46.3423 -46.3339 -46.3114 -46.2956 -46.2786
   -46.2692 -18.9368 -18.9030 -18.9027  14.1335  14.7260  15.1590  15.7278
    16.3976  16.5447  16.8181  17.0303  17.2293  17.2992  17.4236  17.6615
    17.8219  17.9456  18.0731  18.1877  18.3291  18.5721  18.6811  18.9546
    19.1469  19.5043  19.7855  19.9945  21.0902  21.5009  22.2508  22.6549
    22.8392  25.9450  27.5909  28.7733

          k = 0.2895 0.2895 0.0000 (  2354 PWs)   bands (ev):

   -87.4973 -87.4868 -87.4762 -87.4722 -54.1433 -46.4937 -46.4457 -46.4359
   -46.4339 -46.4200 -46.4171 -46.3983 -46.3431 -46.3289 -46.3049 -46.2655
   -46.2528 -18.9128 -18.9036 -18.8777  12.0943  14.2374  14.8949  15.6905
    15.8492  16.1923  16.4317  16.7822  16.7908  17.3649  17.4191  17.6999
    17.8894  18.1009  18.1065  18.4851  18.6652  18.8508  18.8603  19.1647
    19.5522  19.5674  20.3064  21.0059  21.0351  21.5733  22.1986  22.9792
    25.4813  28.0132  28.6175  29.4269

          k = 0.2895-0.3860 1.0908 (  2359 PWs)   bands (ev):

   -87.4962 -87.4874 -87.4789 -87.4740 -54.1433 -46.4984 -46.4830 -46.4501
   -46.4304 -46.4231 -46.4068 -46.3814 -46.3711 -46.3354 -46.3309 -46.2918
   -46.2630 -18.9124 -18.9039 -18.8866  12.7549  13.8846  14.9918  15.7244
    15.8466  16.0754  16.3862  16.6894  16.8480  17.2501  17.5538  17.7327
    17.8789  17.9876  18.0991  18.4345  18.6492  18.6941  19.0131  19.1897
    19.3895  19.5816  20.0564  20.5831  21.1248  21.6532  21.9862  23.6109
    25.1917  26.3251  28.0719  29.0594

          k = 0.2895-0.2895 0.9350 (  2359 PWs)   bands (ev):

   -87.4953 -87.4871 -87.4784 -87.4750 -54.1428 -46.4950 -46.4773 -46.4476
   -46.4323 -46.4142 -46.3950 -46.3763 -46.3617 -46.3344 -46.3285 -46.3056
   -46.2782 -18.9097 -18.9076 -18.9031  13.6755  13.9322  15.3766  15.6962
    15.7595  16.1061  16.3674  16.9275  16.9424  17.3941  17.6517  17.7322
    17.7728  17.8753  17.9398  18.3768  18.4446  18.5671  18.8680  18.9713
    19.3890  19.4942  19.7599  20.2656  21.2658  21.6207  21.8553  23.3886
    24.8090  24.9960  27.7673  29.7204

          k =-0.3860-0.3860 0.0000 (  2346 PWs)   bands (ev):

   -87.4947 -87.4864 -87.4734 -87.4728 -54.1434 -46.4650 -46.4280 -46.4175
   -46.4041 -46.3999 -46.3978 -46.3869 -46.3651 -46.3075 -46.2991 -46.2767
   -46.2685 -18.9139 -18.9033 -18.8774  12.8158  13.4638  14.8074  15.6260
    15.8427  16.1894  16.3059  16.7124  17.0160  17.1003  17.7105  17.7361
    17.9064  18.1734  18.2700  18.4598  18.7026  18.7449  18.8870  19.1839
    19.4803  19.7539  20.6743  20.9200  21.0693  21.8403  22.2659  22.3338
    25.6360  27.6320  28.3319  29.6984

          k = 0.0000 0.1930 0.0000 (  2370 PWs)   bands (ev):

   -87.5072 -87.4824 -87.4787 -87.4749 -54.1431 -46.5067 -46.4965 -46.4728
   -46.4454 -46.4337 -46.4229 -46.4038 -46.3654 -46.3624 -46.3203 -46.2972
   -46.2922 -18.9068 -18.9063 -18.8782  11.0021  15.3093  15.4757  16.0663
    16.1320  16.2503  16.2724  16.6814  16.9261  16.9271  17.4456  17.5405
    17.6890  17.7320  17.9662  18.1237  18.5521  18.6991  18.8808  19.0440
    19.3760  19.7111  20.0167  20.9539  21.4855  21.7254  22.4226  23.2186
    25.8371  27.9563  28.7218  30.2273

          k = 0.0000 0.2895-0.1558 (  2371 PWs)   bands (ev):

   -87.5042 -87.4814 -87.4805 -87.4780 -54.1431 -46.5166 -46.4814 -46.4716
   -46.4545 -46.4282 -46.4155 -46.4138 -46.4087 -46.3501 -46.3302 -46.3082
   -46.2802 -18.9074 -18.9068 -18.8869  11.6238  15.1779  15.4306  15.6424
    16.0514  16.1261  16.2410  16.4031  17.1071  17.3633  17.4738  17.7114
    17.8201  17.9131  18.1179  18.3013  18.3246  18.6643  18.8594  18.8818
    19.3460  19.5022  19.9872  20.8594  21.2089  21.3886  22.2866  23.0267
    26.0708  26.7604  28.6041  29.0266

          k = 0.0000 0.3860-0.3117 (  2358 PWs)   bands (ev):

   -87.4985 -87.4811 -87.4788 -87.4764 -54.1427 -46.4903 -46.4655 -46.4431
   -46.4324 -46.4209 -46.3857 -46.3765 -46.3604 -46.3324 -46.3134 -46.3093
   -46.2856 -18.9097 -18.9058 -18.9041  12.7305  14.9960  15.3406  15.6792
    15.9835  16.2384  16.3532  16.5040  17.2557  17.5325  17.7436  17.7958
    17.8591  17.9096  17.9703  18.1280  18.2222  18.6953  18.8483  19.0097
    19.4514  19.5809  19.7347  20.1045  21.3218  21.4530  22.0972  22.6696
    24.1299  26.5896  27.7209  29.1286

          k = 0.0000-0.2895 0.7791 (  2343 PWs)   bands (ev):

   -87.4882 -87.4820 -87.4787 -87.4753 -54.1421 -46.4574 -46.4435 -46.4377
   -46.4334 -46.3674 -46.3478 -46.3416 -46.3249 -46.3156 -46.3019 -46.2744
   -46.2677 -18.9279 -18.9042 -18.9039  14.0161  14.7727  15.2127  15.8702
    16.0487  16.4518  16.6876  16.7820  17.1625  17.2575  17.5093  17.6697
    17.6980  17.8194  17.9543  18.1779  18.7043  18.7907  18.8397  19.1254
    19.3897  19.4601  19.6075  20.0551  21.3389  21.4579  21.7076  22.4606
    23.2148  25.7264  27.3741  28.6589

          k = 0.0000-0.1930 0.6233 (  2349 PWs)   bands (ev):

   -87.4873 -87.4828 -87.4802 -87.4777 -54.1419 -46.4620 -46.4594 -46.4499
   -46.4339 -46.3780 -46.3606 -46.3394 -46.3323 -46.3259 -46.3013 -46.2906
   -46.2818 -18.9369 -18.9033 -18.9026  13.9284  14.8540  15.1708  15.8773
    16.2337  16.7125  16.7476  16.9674  17.1280  17.4184  17.4563  17.4953
    17.7154  17.8419  18.1144  18.1951  18.5515  18.6887  18.7656  18.9666
    19.0104  19.5349  19.7667  19.8508  21.1296  21.3015  22.3050  22.6721
    23.4209  25.0614  27.3379  28.3758

          k = 0.0000-0.0965 0.4675 (  2354 PWs)   bands (ev):

   -87.5001 -87.4790 -87.4779 -87.4750 -54.1420 -46.4967 -46.4726 -46.4552
   -46.4317 -46.4082 -46.3677 -46.3530 -46.3437 -46.3283 -46.3242 -46.2913
   -46.2648 -18.9286 -18.9029 -18.9026  12.6095  15.3317  15.5431  15.9283
    16.1732  16.6881  16.9002  16.9809  17.1247  17.2298  17.5231  17.6803
    17.8326  18.0246  18.1380  18.1508  18.2302  18.4371  18.5094  18.6585
    18.9335  19.5017  20.0569  20.1671  20.9106  21.0986  23.4824  23.9635
    24.4122  24.9407  27.2313  28.1944

          k = 0.0000 0.0000 0.3117 (  2363 PWs)   bands (ev):

   -87.5055 -87.4776 -87.4775 -87.4775 -54.1423 -46.4737 -46.4737 -46.4538
   -46.4415 -46.4256 -46.3815 -46.3770 -46.3770 -46.3329 -46.3329 -46.3198
   -46.3061 -18.9079 -18.9036 -18.9036  11.5383  15.8429  15.8429  15.9024
    16.0936  16.5724  16.6644  16.8548  16.8548  17.3176  17.5891  17.6229
    17.6754  17.6754  17.8811  17.8811  18.5213  18.5760  18.5760  18.6685
    19.1229  19.4240  20.4773  20.6183  20.6184  21.1632  24.4666  24.4666
    25.1964  25.3209  27.9760  28.2618

          k = 0.0965 0.2895 0.0000 (  2357 PWs)   bands (ev):

   -87.4973 -87.4825 -87.4780 -87.4762 -54.1432 -46.4836 -46.4634 -46.4420
   -46.4411 -46.4199 -46.4089 -46.4035 -46.3236 -46.3192 -46.3022 -46.2850
   -46.2671 -18.9092 -18.9058 -18.8777  11.4916  14.9459  15.2197  15.8856
    15.9122  16.0946  16.2927  16.5364  16.8784  17.2720  17.5559  17.8341
    17.8896  17.9004  18.0729  18.5884  18.7416  18.8318  18.9674  19.1580
    19.1839  19.4980  19.9108  20.9848  21.3988  21.6537  21.8183  23.5577
    25.2343  27.7406  29.1561  29.8658

          k = 0.0965 0.3860-0.1558 (  2361 PWs)   bands (ev):

   -87.4982 -87.4823 -87.4799 -87.4770 -54.1433 -46.4839 -46.4737 -46.4515
   -46.4410 -46.4247 -46.4063 -46.3875 -46.3715 -46.3463 -46.3108 -46.2966
   -46.2865 -18.9097 -18.9065 -18.8864  12.2305  14.7538  15.2768  15.5940
    15.8533  15.9535  16.2536  16.3772  17.0553  17.2891  17.5032  17.9117
    17.9253  18.0925  18.1135  18.3323  18.6685  18.7621  19.0296  19.0691
    19.3648  19.5675  19.7967  20.5450  21.1974  21.6179  21.8912  23.2723
    24.8659  25.8787  29.5090  30.0336

          k = 0.0965-0.2895 0.9350 (  2346 PWs)   bands (ev):

   -87.4932 -87.4831 -87.4760 -87.4742 -54.1427 -46.4632 -46.4392 -46.4240
   -46.4161 -46.4024 -46.3816 -46.3570 -46.3448 -46.3097 -46.3050 -46.2784
   -46.2564 -18.9087 -18.9075 -18.9037  13.3424  14.9442  15.2251  15.4206
    15.7966  16.1765  16.3101  16.5290  17.2552  17.3669  17.6180  17.8211
    17.9276  18.0737  18.1168  18.1481  18.3593  18.7853  18.9520  19.2337
    19.4425  19.5835  19.8063  20.0281  21.4157  21.6991  21.8382  22.5836
    23.7372  25.2518  28.7127  29.1892

          k = 0.0965-0.1930 0.7791 (  2347 PWs)   bands (ev):

   -87.4875 -87.4826 -87.4791 -87.4775 -54.1422 -46.4571 -46.4530 -46.4348
   -46.4329 -46.3706 -46.3586 -46.3523 -46.3332 -46.3226 -46.3073 -46.2857
   -46.2727 -18.9279 -18.9053 -18.9038  14.3552  14.9728  15.0938  15.4589
    15.9462  16.3740  16.6500  16.8542  17.2829  17.4277  17.4968  17.6213
    17.6588  17.8913  18.0457  18.1639  18.3616  18.6555  18.8566  19.1151
    19.2885  19.5516  19.6455  19.9815  21.2529  21.6342  21.7897  22.5780
    22.9637  24.9213  27.9820  28.7908

          k = 0.0965-0.0965 0.6233 (  2343 PWs)   bands (ev):

   -87.4880 -87.4815 -87.4782 -87.4759 -54.1418 -46.4718 -46.4461 -46.4320
   -46.4196 -46.3653 -46.3564 -46.3349 -46.3273 -46.3090 -46.2901 -46.2731
   -46.2621 -18.9366 -18.9028 -18.9028  13.8276  14.9785  15.2556  15.8101
    16.0647  16.6761  16.7582  17.1880  17.2918  17.3571  17.4682  17.5243
    17.9295  18.0715  18.1814  18.2265  18.2818  18.5407  18.7902  18.8604
    18.9967  19.5346  19.7472  19.8741  21.0917  21.3202  22.5973  23.0635
    23.2021  24.7617  27.4970  28.6220

          k = 0.1930 0.1930 0.3117 (  2352 PWs)   bands (ev):

   -87.5007 -87.4793 -87.4761 -87.4744 -54.1424 -46.4886 -46.4468 -46.4446
   -46.4260 -46.4061 -46.3720 -46.3657 -46.3509 -46.3342 -46.3030 -46.2751
   -46.2649 -18.9086 -18.9052 -18.9028  12.1529  15.0777  15.5884  15.7640
    16.1720  16.3853  16.6805  16.9755  17.0926  17.2068  17.3732  17.6340
    17.7869  17.9356  18.0055  18.2587  18.3519  18.4741  18.7647  18.8517
    19.4395  19.5879  19.9369  20.5868  21.1993  21.3518  22.0829  24.0756
    25.2239  26.1685  27.6839  28.7426

          k = 0.1930 0.3860 0.0000 (  2363 PWs)   bands (ev):

   -87.5003 -87.4871 -87.4775 -87.4743 -54.1435 -46.5127 -46.4771 -46.4501
   -46.4267 -46.4157 -46.4141 -46.4061 -46.3982 -46.3651 -46.3178 -46.2920
   -46.2589 -18.9123 -18.9055 -18.8778  12.2475  14.2511  14.9731  15.6993
    15.7527  15.9639  16.4670  16.4947  16.7608  17.3333  17.3996  17.8373
    17.8815  18.0450  18.1247  18.5771  18.7773  18.8246  18.9552  19.1474
    19.4306  19.4734  19.9015  20.9853  21.1181  21.4492  22.1191  23.4227
    24.5155  26.9110  29.3389  30.2351

          k = 0.1930-0.2895 1.0908 (  2357 PWs)   bands (ev):

   -87.4931 -87.4860 -87.4788 -87.4770 -54.1434 -46.4888 -46.4743 -46.4457
   -46.4296 -46.4187 -46.3989 -46.3834 -46.3594 -46.3387 -46.3283 -46.2932
   -46.2695 -18.9116 -18.9061 -18.8862  13.0347  14.0569  15.0516  15.5557
    15.7556  15.8629  16.2564  16.5739  16.8760  17.2694  17.4000  17.9024
    17.9801  18.0744  18.3768  18.5099  18.7485  18.8020  19.0873  19.2412
    19.3667  19.5616  19.7098  20.3566  21.1844  21.7061  22.0373  23.1406
    24.2823  25.2813  29.1072  30.4784

          k = 0.1930-0.1930 0.9350 (  2358 PWs)   bands (ev):

   -87.4921 -87.4866 -87.4790 -87.4775 -54.1429 -46.4797 -46.4641 -46.4591
   -46.4362 -46.3929 -46.3905 -46.3826 -46.3604 -46.3466 -46.3147 -46.3070
   -46.2996 -18.9095 -18.9077 -18.9046  13.9974  14.2343  15.2387  15.5009
    15.6616  16.1201  16.2247  16.7943  17.0104  17.4003  17.6887  17.7317
    17.7566  17.9620  18.1984  18.3123  18.3806  18.6732  18.7612  19.1257
    19.4342  19.5759  19.7771  20.0043  21.4011  21.5245  22.0353  22.3430
    24.1273  24.3297  28.3539  30.7858

          k =-0.4824 0.1930-0.7791 (  2361 PWs)   bands (ev):

   -87.4942 -87.4841 -87.4808 -87.4777 -54.1421 -46.4910 -46.4815 -46.4611
   -46.4456 -46.3981 -46.3859 -46.3735 -46.3471 -46.3350 -46.3278 -46.3232
   -46.3020 -18.9287 -18.9051 -18.9028  13.4037  14.7437  15.2391  15.9167
    16.1214  16.4657  16.8546  17.1163  17.2075  17.3102  17.4847  17.6501
    17.7377  17.8893  17.9087  18.1281  18.1852  18.4187  18.6524  18.7389
    19.3257  19.4953  19.6813  20.2789  21.2895  21.3183  21.7517  22.8727
    23.8696  26.2280  27.9359  29.0531

          k =-0.4824 0.2895-0.9350 (  2364 PWs)   bands (ev):

   -87.4981 -87.4860 -87.4798 -87.4751 -54.1427 -46.4925 -46.4835 -46.4647
   -46.4417 -46.4222 -46.3928 -46.3712 -46.3603 -46.3524 -46.3370 -46.3155
   -46.2941 -18.9097 -18.9070 -18.9029  12.8492  14.4770  15.4067  15.6793
    15.9849  16.2876  16.4889  16.9538  17.1092  17.2470  17.2875  17.6158
    17.7598  17.8913  18.0019  18.2500  18.4175  18.6663  18.7326  18.9315
    19.4518  19.5447  19.6483  20.4900  21.2972  21.5141  21.6990  24.0742
    24.7788  25.6903  27.9425  29.0131

          k =-0.4824-0.2895 0.0000 (  2364 PWs)   bands (ev):

   -87.4968 -87.4887 -87.4794 -87.4753 -54.1436 -46.4984 -46.4980 -46.4508
   -46.4385 -46.4323 -46.4157 -46.3836 -46.3717 -46.3606 -46.3395 -46.3170
   -46.2807 -18.9138 -18.9057 -18.8777  12.9718  13.5480  14.8277  15.6205
    15.6746  15.9290  16.4630  16.6813  16.8042  17.0585  17.1837  17.8405
    18.1387  18.1733  18.2990  18.4192  18.6609  18.7844  18.8226  19.1774
    19.5184  19.5988  20.4209  20.8727  20.8805  21.6887  22.2772  22.3641
    24.9993  26.6479  28.8204  29.8894

          k =-0.3860 0.1930-0.6233 (  2344 PWs)   bands (ev):

   -87.4846 -87.4832 -87.4810 -87.4758 -54.1418 -46.4731 -46.4587 -46.4422
   -46.4257 -46.3617 -46.3508 -46.3385 -46.3267 -46.3035 -46.2907 -46.2801
   -46.2607 -18.9363 -18.9031 -18.9029  14.4211  14.7367  14.9774  15.5214
    16.2463  16.8516  16.9667  17.1255  17.1834  17.2719  17.5465  17.5709
    17.5974  17.7678  17.8681  18.1266  18.3819  18.5303  18.8337  18.9398
    19.3806  19.5646  19.7234  19.9655  21.2333  21.6968  21.7357  22.4334
    22.8167  26.7642  27.5990  29.2546

          k =-0.3860 0.2895-0.7791 (  2360 PWs)   bands (ev):

   -87.4904 -87.4865 -87.4818 -87.4774 -54.1422 -46.4938 -46.4676 -46.4598
   -46.4534 -46.4103 -46.3800 -46.3496 -46.3483 -46.3308 -46.3268 -46.3154
   -46.3044 -18.9283 -18.9059 -18.9026  14.0587  14.4195  15.2708  15.6361
    15.8809  16.4006  16.9428  17.1550  17.2134  17.5242  17.5724  17.6501
    17.7140  17.7780  17.8148  17.8868  18.2226  18.3213  18.4811  18.9378
    19.3022  19.6747  19.7969  20.0523  21.3669  21.5750  21.7694  22.6567
    23.5586  26.3366  28.4336  29.6013

          k =-0.3860 0.3860-0.9350 (  2362 PWs)   bands (ev):

   -87.4951 -87.4887 -87.4813 -87.4726 -54.1427 -46.5187 -46.4846 -46.4601
   -46.4382 -46.3878 -46.3825 -46.3784 -46.3594 -46.3427 -46.3387 -46.3298
   -46.2675 -18.9098 -18.9071 -18.9032  13.5606  13.8197  15.3606  15.8015
    15.8505  16.1512  16.4765  16.8745  17.1191  17.2273  17.5128  17.5704
    17.7796  17.7981  17.9937  18.2525  18.4634  18.6684  18.7497  19.0979
    19.3230  19.5827  19.6042  20.4447  21.3653  21.6031  21.6988  24.0972
    24.8119  25.2266  28.2488  28.6113

          k =-0.2895 0.2895-0.6233 (  2355 PWs)   bands (ev):

   -87.4871 -87.4862 -87.4838 -87.4755 -54.1420 -46.4965 -46.4737 -46.4625
   -46.4539 -46.3768 -46.3614 -46.3402 -46.3332 -46.3271 -46.3159 -46.3133
   -46.2916 -18.9366 -18.9038 -18.9033  14.5033  14.6794  15.0313  15.3122
    16.1444  16.9079  16.9968  17.1062  17.2181  17.4285  17.4523  17.6392
    17.6991  17.8452  17.8826  18.0185  18.0998  18.2988  18.4848  19.0197
    19.3769  19.4757  19.7894  19.8587  21.3267  21.6976  21.9854  22.3248
    22.5446  27.1753  27.9510  29.1407

          k = 0.0000 0.3860 0.0000 (  2362 PWs)   bands (ev):

   -87.4985 -87.4850 -87.4780 -87.4765 -54.1435 -46.5250 -46.4733 -46.4585
   -46.4455 -46.4233 -46.4073 -46.3631 -46.3546 -46.3239 -46.3166 -46.3123
   -46.2868 -18.9092 -18.9091 -18.8773  11.9637  14.8002  15.2627  15.5276
    15.8815  16.0372  16.1422  16.1530  17.0056  17.2437  17.2562  17.9575
    18.1581  18.2422  18.3012  18.4032  18.5496  18.8539  19.0719  19.1048
    19.1807  19.6634  19.8164  20.8389  21.2155  21.6157  21.8902  22.6989
    25.2139  26.6249  29.2236  30.1221

          k = 0.0000 0.4824-0.1558 (  2360 PWs)   bands (ev):

   -87.4959 -87.4842 -87.4802 -87.4767 -54.1435 -46.4850 -46.4642 -46.4471
   -46.4381 -46.4181 -46.4042 -46.3966 -46.3896 -46.3309 -46.3173 -46.3019
   -46.2854 -18.9096 -18.9088 -18.8864  12.8110  14.7354  15.1638  15.2728
    15.7922  15.9541  16.1048  16.2442  17.0492  17.2104  17.4687  17.9290
    18.0943  18.1845  18.3243  18.4101  18.6990  18.7604  19.0085  19.1633
    19.3654  19.5930  19.7684  20.2655  21.2364  21.6852  22.0084  22.4022
    24.2502  25.0618  29.8417  30.7664

          k = 0.0000-0.1930 0.9350 (  2349 PWs)   bands (ev):

   -87.4905 -87.4818 -87.4793 -87.4770 -54.1429 -46.4587 -46.4563 -46.4458
   -46.4227 -46.3953 -46.3816 -46.3753 -46.3503 -46.3224 -46.2900 -46.2701
   -46.2678 -18.9088 -18.9072 -18.9057  13.9503  14.8705  15.0806  15.2951
    15.7002  16.0310  16.4032  16.5716  17.0137  17.3849  17.7199  17.7256
    17.7562  17.8687  18.1116  18.2563  18.7105  18.8035  18.9092  19.3327
    19.5466  19.6238  19.7907  20.0327  21.2106  21.6906  21.8113  22.2620
    23.1823  24.3120  29.2769  30.0578

          k = 0.0000-0.0965 0.7791 (  2341 PWs)   bands (ev):

   -87.4827 -87.4812 -87.4809 -87.4769 -54.1422 -46.4540 -46.4368 -46.4211
   -46.4071 -46.3684 -46.3483 -46.3418 -46.3186 -46.3028 -46.2889 -46.2763
   -46.2561 -18.9276 -18.9047 -18.9045  14.7080  14.9073  15.0649  15.5091
    15.6809  16.2973  16.8500  17.1050  17.3069  17.3479  17.4612  17.5282
    17.6359  17.8930  18.1223  18.2337  18.4540  18.5302  18.8350  19.2738
    19.3495  19.6348  19.7585  19.8586  21.1419  21.4827  22.0802  22.6264
    22.8901  23.9583  28.7540  29.1956

          k = 0.0000 0.0000 0.6233 (  2340 PWs)   bands (ev):

   -87.4881 -87.4777 -87.4777 -87.4777 -54.1418 -46.4525 -46.4525 -46.4146
   -46.4063 -46.3444 -46.3433 -46.3433 -46.3097 -46.2910 -46.2910 -46.2909
   -46.2843 -18.9365 -18.9027 -18.9027  13.7133  15.3201  15.3201  15.5569
    15.9209  16.6179  17.0013  17.2348  17.2453  17.2453  17.6579  17.9019
    17.9278  17.9278  18.1791  18.1791  18.3368  18.3552  18.7907  18.8612
    18.8612  19.6119  19.8228  19.8228  21.0901  21.2095  22.8330  23.4445
    23.4445  23.9724  27.8769  28.7528

          k = 0.0965 0.4824 0.0000 (  2357 PWs)   bands (ev):

   -87.4936 -87.4855 -87.4800 -87.4756 -54.1437 -46.4913 -46.4516 -46.4488
   -46.4331 -46.4218 -46.4097 -46.3761 -46.3481 -46.3425 -46.3111 -46.2945
   -46.2847 -18.9115 -18.9084 -18.8775  12.6897  14.3450  15.0235  15.5400
    15.6848  15.8889  16.1755  16.3386  16.9366  17.0276  17.2049  17.9495
    18.3112  18.3773  18.4481  18.6713  18.7337  18.8226  19.0725  19.2296
    19.3096  19.4655  19.5889  20.7265  21.1493  21.6061  22.0231  22.8826
    24.0142  25.5910  29.9685  30.7669

          k = 0.0965-0.1930 1.0908 (  2353 PWs)   bands (ev):

   -87.4923 -87.4850 -87.4798 -87.4748 -54.1435 -46.4709 -46.4488 -46.4448
   -46.4222 -46.4084 -46.3965 -46.3850 -46.3748 -46.3215 -46.3112 -46.2809
   -46.2681 -18.9108 -18.9086 -18.8862  13.5559  14.3103  14.9964  15.3876
    15.5954  15.9138  16.0810  16.4424  16.9034  17.0535  17.3910  17.8435
    18.0181  18.2198  18.5012  18.5271  18.8486  18.9684  19.0339  19.2704
    19.4277  19.6006  19.6957  20.2315  21.2861  21.8095  21.9548  22.3701
    23.6598  24.1713  30.3549  31.3637

          k = 0.0965-0.0965 0.9350 (  2346 PWs)   bands (ev):

   -87.4879 -87.4841 -87.4787 -87.4755 -54.1430 -46.4550 -46.4379 -46.4267
   -46.4163 -46.3808 -46.3733 -46.3662 -46.3578 -46.3147 -46.2961 -46.2799
   -46.2605 -18.9084 -18.9077 -18.9058  14.4556  14.6604  14.9876  15.3184
    15.5740  15.9997  16.4774  16.7604  16.9878  17.1961  17.6116  17.6297
    17.6633  17.8459  18.1818  18.3501  18.6124  18.8061  19.1552  19.4561
    19.5001  19.7267  19.8847  20.0644  20.9336  21.7593  21.8710  22.2461
    23.1897  23.6529  29.5963  30.8879

          k =-0.5789-0.1930 0.0000 (  2348 PWs)   bands (ev):

   -87.4924 -87.4870 -87.4778 -87.4714 -54.1436 -46.4973 -46.4469 -46.4275
   -46.4184 -46.3979 -46.3884 -46.3540 -46.3359 -46.3333 -46.3056 -46.2774
   -46.2615 -18.9124 -18.9079 -18.8770  13.4069  13.7919  14.8975  15.3982
    15.7557  15.8681  16.2557  16.5635  16.7529  17.0221  17.1151  17.7710
    18.1662  18.4530  18.5270  18.7449  18.8434  18.8641  19.1931  19.2513
    19.5151  19.6120  19.8552  20.5800  20.9452  21.7777  22.2186  22.3416
    24.0301  25.2073  29.7500  30.7812

          k =-0.3860 0.3860-0.6233 (  2356 PWs)   bands (ev):

   -87.4855 -87.4855 -87.4853 -87.4769 -54.1420 -46.4886 -46.4814 -46.4814
   -46.4735 -46.3745 -46.3591 -46.3591 -46.3348 -46.3136 -46.3136 -46.2998
   -46.2901 -18.9364 -18.9039 -18.9039  14.7467  14.7467  14.9546  14.9699
    16.0104  17.0352  17.0352  17.2792  17.4871  17.5449  17.5449  17.5752
    17.6231  17.6231  17.7048  18.0475  18.0475  18.1353  18.3610  19.1272
    19.4839  19.4839  19.7579  19.7943  21.5058  21.9113  21.9113  22.0532
    22.4517  28.1257  28.1257  28.7453

          k = 0.0000 0.5789 0.0000 (  2346 PWs)   bands (ev):

   -87.4925 -87.4835 -87.4793 -87.4718 -54.1438 -46.4452 -46.4396 -46.4202
   -46.4176 -46.4155 -46.4045 -46.3842 -46.3801 -46.3072 -46.2804 -46.2654
   -46.2374 -18.9103 -18.9102 -18.8776  13.3444  14.4137  15.0072  15.2014
    15.6765  15.8899  16.0967  16.1924  16.8265  16.9157  17.4265  17.9020
    18.1915  18.5189  18.6128  18.6355  18.8118  18.8480  19.1969  19.3773
    19.4364  19.5538  19.7688  20.3010  21.1837  21.8296  22.0504  22.2995
    23.6626  24.3970  30.3786  31.3888

          k = 0.0000-0.0965 1.0908 (  2337 PWs)   bands (ev):

   -87.4852 -87.4828 -87.4795 -87.4728 -54.1436 -46.4362 -46.4201 -46.4138
   -46.3955 -46.3907 -46.3692 -46.3554 -46.3270 -46.2985 -46.2767 -46.2668
   -46.2483 -18.9101 -18.9099 -18.8854  14.1521  14.4731  14.9970  15.1433
    15.4824  15.7818  16.3292  16.3992  16.7277  16.8586  17.6187  17.7675
    17.9461  18.0913  18.5573  18.6202  18.8490  18.9029  19.3978  19.4710
    19.6906  19.7631  19.9219  20.1467  21.2541  21.8996  21.9887  22.1375
    23.1213  23.3631  31.4551  31.6921

          k = 0.0000 0.0000 0.9350 (  2336 PWs)   bands (ev):

   -87.4812 -87.4812 -87.4810 -87.4754 -54.1429 -46.4356 -46.4157 -46.4157
   -46.3892 -46.3729 -46.3647 -46.3613 -46.3613 -46.2863 -46.2555 -46.2555
   -46.2242 -18.9071 -18.9071 -18.9071  14.7982  14.8381  15.1556  15.1556
    15.2590  16.0167  16.7068  16.8489  16.8489  16.9647  17.6174  17.6288
    17.6288  17.6625  18.4348  18.4348  18.5976  18.7022  19.6592  19.6966
    19.6966  19.8308  19.9361  19.9361  20.3329  21.7973  22.3003  22.3003
    22.5134  23.3189  30.5670  31.5811

          k =-0.6754-0.0965 0.0000 (  2348 PWs)   bands (ev):

   -87.4906 -87.4851 -87.4791 -87.4734 -54.1439 -46.4551 -46.4428 -46.4295
   -46.4236 -46.4033 -46.3991 -46.3942 -46.3732 -46.2973 -46.2913 -46.2760
   -46.2429 -18.9117 -18.9100 -18.8776  13.9556  14.1233  14.8355  15.2516
    15.5377  15.8359  16.0832  16.3627  16.6596  16.8625  17.4389  17.7024
    18.1546  18.4662  18.6588  18.7014  18.8623  18.9391  19.1723  19.3931
    19.4810  19.5648  19.8451  20.1686  21.3684  21.8665  22.1122  22.1713
    23.3916  23.7658  30.5256  31.8830

          k = 0.0000-0.7719 0.0000 (  2368 PWs)   bands (ev):

   -87.4885 -87.4885 -87.4884 -87.4772 -54.1441 -46.5023 -46.4751 -46.4465
   -46.4465 -46.4419 -46.4344 -46.4319 -46.4319 -46.3252 -46.3073 -46.3073
   -46.2851 -18.9118 -18.9118 -18.8785  14.2034  14.3215  15.0519  15.1476
    15.1476  15.6362  16.2439  16.2439  16.4828  16.6550  17.6821  17.6821
    17.9662  17.9732  18.7366  18.8589  18.8596  18.8596  19.1406  19.2812
    19.4042  19.4042  19.8889  19.8889  21.8756  22.0089  22.0630  22.0630
    22.7287  23.1703  30.7953  32.5007

          k = 0.1930 0.0965 0.1558 (  2366 PWs)   bands (ev):

   -87.5049 -87.4811 -87.4792 -87.4751 -54.1429 -46.4893 -46.4850 -46.4582
   -46.4431 -46.4239 -46.4158 -46.3858 -46.3751 -46.3412 -46.3299 -46.3069
   -46.2863 -18.9074 -18.9048 -18.8868  11.3021  15.3581  15.4156  15.9467
    16.0392  16.2679  16.5070  16.7069  16.9255  17.3766  17.4552  17.4959
    17.5281  17.8546  17.8944  18.4073  18.4840  18.6495  18.8201  18.8651
    19.4019  19.4925  20.0506  21.0224  21.1245  21.4502  22.4728  23.6372
    25.9510  27.4467  28.2625  28.5399

          k = 0.2895 0.0965 0.3117 (  2359 PWs)   bands (ev):

   -87.4991 -87.4804 -87.4788 -87.4773 -54.1426 -46.4951 -46.4807 -46.4502
   -46.4330 -46.4148 -46.3850 -46.3770 -46.3594 -46.3345 -46.3236 -46.2983
   -46.2775 -18.9093 -18.9048 -18.9040  12.3091  14.9573  15.5071  15.8656
    16.1448  16.1965  16.5038  16.7043  17.3331  17.4278  17.5688  17.6506
    17.9126  17.9242  17.9591  18.0866  18.2160  18.5986  18.7313  18.8152
    19.4146  19.5702  19.7898  20.5561  21.1037  21.3793  22.0861  23.5910
    24.6930  26.5906  28.0372  28.5613

          k =-0.3860 0.0965-0.7791 (  2352 PWs)   bands (ev):

   -87.4910 -87.4817 -87.4798 -87.4781 -54.1421 -46.4818 -46.4699 -46.4488
   -46.4319 -46.3776 -46.3702 -46.3681 -46.3279 -46.3113 -46.3103 -46.3069
   -46.2888 -18.9284 -18.9044 -18.9034  13.6548  14.6597  15.3119  15.9217
    16.1286  16.5314  16.6946  16.8398  17.1537  17.4330  17.5523  17.5702
    17.6759  17.8017  17.8927  18.2427  18.5247  18.6057  18.6830  18.9480
    19.4156  19.5374  19.7834  20.0318  21.1757  21.3791  21.7112  22.6666
    23.7619  25.7986  27.6371  29.0578

          k =-0.2895 0.0965-0.6233 (  2351 PWs)   bands (ev):

   -87.4874 -87.4843 -87.4806 -87.4774 -54.1419 -46.4731 -46.4570 -46.4512
   -46.4379 -46.3881 -46.3538 -46.3483 -46.3353 -46.3298 -46.3074 -46.3044
   -46.2788 -18.9368 -18.9032 -18.9029  14.1718  14.6775  15.1811  15.7207
    16.4189  16.6092  16.8435  16.9733  17.0856  17.1770  17.4957  17.5541
    17.6784  17.7900  17.9287  18.2232  18.4120  18.6748  18.8487  19.0825
    19.2064  19.5319  19.7471  19.9274  20.9919  21.4663  21.8615  22.5891
    23.1564  25.7134  27.5781  28.7065

          k =-0.1930 0.0965-0.4675 (  2358 PWs)   bands (ev):

   -87.4989 -87.4831 -87.4778 -87.4749 -54.1420 -46.5059 -46.4706 -46.4621
   -46.4435 -46.4206 -46.3858 -46.3577 -46.3484 -46.3353 -46.3288 -46.2869
   -46.2705 -18.9288 -18.9038 -18.9026  12.8785  15.0993  15.4083  16.0757
    16.2018  16.5318  16.8827  17.0311  17.1222  17.1919  17.4228  17.6466
    17.8365  17.8979  18.0304  18.1226  18.2725  18.4328  18.6444  18.7636
    19.1236  19.4868  19.8043  20.1571  21.0788  21.2575  22.8844  22.9427
    23.9943  26.0645  27.4927  28.3137

          k = 0.2895 0.1930 0.1558 (  2360 PWs)   bands (ev):

   -87.5010 -87.4836 -87.4769 -87.4751 -54.1431 -46.4855 -46.4637 -46.4505
   -46.4191 -46.4141 -46.4045 -46.3986 -46.3945 -46.3315 -46.3227 -46.2900
   -46.2758 -18.9101 -18.9041 -18.8866  11.9316  14.7489  15.0972  15.8135
    15.9379  16.1028  16.4879  16.7676  16.9931  17.2170  17.3102  17.6018
    17.8715  17.9982  18.0414  18.3114  18.6823  18.7632  18.8985  19.1402
    19.4598  19.6222  19.8572  20.8762  21.0299  21.7134  21.9190  23.4547
    25.7979  27.3295  27.7477  28.5997

          k =-0.3860 0.1930-0.9350 (  2358 PWs)   bands (ev):

   -87.4947 -87.4850 -87.4785 -87.4768 -54.1427 -46.4810 -46.4720 -46.4479
   -46.4305 -46.3900 -46.3835 -46.3770 -46.3721 -46.3411 -46.3254 -46.3063
   -46.2923 -18.9099 -18.9063 -18.9036  13.0164  14.4215  15.3907  15.6971
    15.9640  16.2228  16.4108  16.7005  17.1903  17.4573  17.6187  17.6817
    17.8603  17.9297  18.0004  18.2601  18.4502  18.6163  18.6974  18.8200
    19.5488  19.5845  19.6167  20.3991  21.1979  21.6609  21.7098  23.4698
    24.4212  25.9704  27.7296  29.0012

          k =-0.2895 0.1930-0.7791 (  2346 PWs)   bands (ev):

   -87.4890 -87.4841 -87.4773 -87.4759 -54.1421 -46.4650 -46.4473 -46.4395
   -46.4286 -46.3988 -46.3554 -46.3463 -46.3262 -46.3149 -46.2945 -46.2793
   -46.2740 -18.9279 -18.9052 -18.9029  14.3173  14.4150  15.2278  15.6291
    15.9867  16.4992  16.6385  17.0634  17.1137  17.5136  17.6145  17.6340
    17.7670  17.8544  17.9882  18.1972  18.3024  18.5434  18.6318  18.8065
    19.4834  19.6271  19.8148  20.0013  21.1649  21.5645  21.9487  22.3057
    23.8014  25.4896  27.7181  29.8740

          k =-0.3860 0.2895-1.0908 (  2359 PWs)   bands (ev):

   -87.4967 -87.4872 -87.4779 -87.4747 -54.1433 -46.4869 -46.4639 -46.4532
   -46.4354 -46.4171 -46.4070 -46.3916 -46.3812 -46.3344 -46.3208 -46.3087
   -46.2689 -18.9125 -18.9039 -18.8865  12.7658  13.8721  14.9588  15.7075
    15.8509  16.1011  16.4141  16.5981  17.0531  17.1024  17.3282  17.7964
    17.9519  18.0406  18.2173  18.3031  18.7009  18.7752  18.9246  19.1140
    19.4761  19.6236  20.0499  20.6629  21.0850  21.7895  21.8938  23.2629
    25.5884  26.5581  27.8651  28.4711

          k = 0.2895 0.0965 0.0000 (  2357 PWs)   bands (ev):

   -87.4999 -87.4823 -87.4768 -87.4750 -54.1432 -46.4771 -46.4547 -46.4500
   -46.4318 -46.4210 -46.4140 -46.3883 -46.3361 -46.3161 -46.3128 -46.2962
   -46.2652 -18.9091 -18.9059 -18.8778  11.4935  15.0177  15.2341  15.7653
    15.9158  16.1027  16.3467  16.4296  16.9282  17.2947  17.3003  17.6336
    17.9977  18.0392  18.1208  18.5156  18.6937  18.9061  19.0144  19.1259
    19.2066  19.7018  20.0481  20.9675  21.1711  21.9578  22.0345  22.6333
    26.1720  27.9870  28.1922  30.0211

          k = 0.3860 0.0965 0.1558 (  2361 PWs)   bands (ev):

   -87.4983 -87.4852 -87.4774 -87.4765 -54.1433 -46.5003 -46.4664 -46.4540
   -46.4303 -46.4173 -46.4027 -46.3944 -46.3790 -46.3420 -46.3154 -46.3007
   -46.2747 -18.9098 -18.9063 -18.8865  12.2402  14.8110  15.0810  15.6015
    15.9242  16.0074  16.1997  16.4538  17.1378  17.2145  17.5404  17.6886
    18.0381  18.0823  18.2198  18.3729  18.6220  18.8142  18.8725  19.0409
    19.3197  19.6392  19.8515  20.6581  21.1282  21.6667  22.0805  22.5596
    25.3759  26.3199  28.6430  29.0401

          k =-0.2895 0.0965-0.9350 (  2346 PWs)   bands (ev):

   -87.4902 -87.4824 -87.4776 -87.4762 -54.1427 -46.4490 -46.4416 -46.4231
   -46.4131 -46.3980 -46.3770 -46.3632 -46.3479 -46.3076 -46.2984 -46.2826
   -46.2749 -18.9095 -18.9059 -18.9046  13.4175  14.5722  15.2901  15.5918
    15.8726  16.1710  16.2526  16.7337  17.1091  17.6458  17.7382  17.8343
    17.8707  17.9684  18.0434  18.2345  18.5008  18.6882  18.7455  19.0884
    19.5514  19.6409  19.7163  20.0437  21.4153  21.6033  21.8124  22.5774
    23.7433  25.4183  27.9877  30.2180

          k =-0.1930 0.0965-0.7791 (  2347 PWs)   bands (ev):

   -87.4876 -87.4839 -87.4783 -87.4771 -54.1422 -46.4637 -46.4592 -46.4349
   -46.4323 -46.3931 -46.3664 -46.3555 -46.3352 -46.3045 -46.2942 -46.2823
   -46.2637 -18.9279 -18.9052 -18.9039  14.5458  14.6570  15.0536  15.5943
    15.9747  16.3804  16.5756  17.0447  17.0644  17.3070  17.5300  17.5488
    17.7738  17.9699  18.1321  18.2099  18.3285  18.5440  18.8055  19.0759
    19.3206  19.6196  19.8382  19.9826  21.0815  21.5783  21.9375  22.2757
    23.4344  24.6796  27.7416  29.4951

          k = 0.3860 0.1930 0.0000 (  2363 PWs)   bands (ev):

   -87.4996 -87.4878 -87.4778 -87.4740 -54.1435 -46.5094 -46.4682 -46.4625
   -46.4452 -46.4254 -46.4238 -46.4083 -46.3513 -46.3509 -46.3305 -46.2986
   -46.2623 -18.9123 -18.9056 -18.8780  12.2497  14.3472  14.8533  15.6539
    15.7551  16.0297  16.2451  16.7830  16.9911  17.0380  17.1117  17.5825
    18.1715  18.2727  18.2777  18.3631  18.5416  18.8802  18.8898  19.0975
    19.6449  19.7237  20.2338  20.8840  20.9305  21.8310  22.1442  22.1830
    25.7003  27.0969  28.3775  29.7858

          k =-0.2895 0.1930-1.0908 (  2357 PWs)   bands (ev):

   -87.4941 -87.4871 -87.4784 -87.4754 -54.1434 -46.4934 -46.4715 -46.4429
   -46.4293 -46.4156 -46.3960 -46.3880 -46.3794 -46.3298 -46.3192 -46.2964
   -46.2629 -18.9118 -18.9060 -18.8862  13.0592  14.0338  14.9884  15.5165
    15.8249  15.9214  16.2899  16.6105  16.8813  17.1798  17.3506  17.7866
    18.0203  18.0785  18.4731  18.5913  18.6612  18.8073  18.9196  19.1565
    19.5231  19.6107  19.8889  20.3430  21.1118  21.8410  21.9921  22.6133
    24.7124  25.5211  28.7761  29.5747

          k = 0.1930-0.4824 0.7791 (  2361 PWs)   bands (ev):

   -87.4936 -87.4845 -87.4808 -87.4778 -54.1422 -46.4951 -46.4851 -46.4676
   -46.4403 -46.3868 -46.3820 -46.3740 -46.3642 -46.3518 -46.3152 -46.3135
   -46.2911 -18.9287 -18.9051 -18.9027  13.3637  14.9795  15.1794  15.9668
    15.9998  16.4346  16.8308  17.0351  17.1668  17.3618  17.4706  17.6466
    17.6940  17.8261  17.9582  18.0701  18.2112  18.4566  18.7065  18.9414
    19.3218  19.4497  19.6157  20.1435  21.2500  21.5108  22.0332  22.6838
    23.5312  27.1480  27.3993  28.4520

          k = 0.2895-0.3860 0.7791 (  2360 PWs)   bands (ev):

   -87.4905 -87.4856 -87.4820 -87.4779 -54.1422 -46.4915 -46.4804 -46.4544
   -46.4454 -46.3932 -46.3795 -46.3658 -46.3555 -46.3386 -46.3226 -46.3153
   -46.2975 -18.9283 -18.9060 -18.9027  13.9392  14.6643  15.2544  15.5763
    15.8363  16.4485  16.8565  17.2430  17.3558  17.3954  17.4442  17.5848
    17.6865  17.7865  17.9044  18.0492  18.0955  18.2772  18.5574  19.1454
    19.1768  19.6604  19.7187  19.9925  21.3619  21.6570  21.8171  22.7309
    23.2885  26.6050  28.5843  28.8218

          k = 0.4824 0.0965 0.0000 (  2357 PWs)   bands (ev):

   -87.4952 -87.4867 -87.4790 -87.4742 -54.1437 -46.4975 -46.4666 -46.4566
   -46.4397 -46.4257 -46.4053 -46.3825 -46.3371 -46.3203 -46.3194 -46.2954
   -46.2752 -18.9116 -18.9082 -18.8775  12.6894  14.4980  14.9392  15.3057
    15.8489  15.9352  16.0212  16.3096  16.9311  17.0425  17.4820  17.5780
    18.2161  18.3610  18.4835  18.5736  18.6127  19.0264  19.1688  19.2104
    19.6010  19.7255  19.7967  20.4383  20.9045  21.7794  22.1109  22.1590
    24.6280  25.6542  29.4267  30.3679

          k =-0.1930 0.0965-1.0908 (  2353 PWs)   bands (ev):

   -87.4905 -87.4855 -87.4802 -87.4756 -54.1435 -46.4711 -46.4546 -46.4316
   -46.4192 -46.4150 -46.3986 -46.3830 -46.3755 -46.3210 -46.3053 -46.2922
   -46.2667 -18.9108 -18.9085 -18.8862  13.5724  14.3399  14.9556  15.2791
    15.7264  15.9447  16.0764  16.4715  16.7503  17.1147  17.5431  17.6650
    17.9782  18.2161  18.5647  18.6537  18.7575  18.9765  18.9823  19.2640
    19.4441  19.6605  19.8539  20.1124  21.1598  21.8931  22.0032  22.1382
    23.7336  24.2824  30.0154  31.3743

     the Fermi energy is    19.9707 ev

!    total energy              =   -1487.95090238 Ry
     estimated scf accuracy    <          2.6E-11 Ry
     smearing contrib. (-TS)   =       0.00571480 Ry
     internal energy E=F+TS    =   -1487.95661718 Ry

     The total energy is F=E-TS. E is the sum of the following terms:
     one-electron contribution =    -678.08463130 Ry
     hartree contribution      =     392.70414056 Ry
     xc contribution           =    -202.54195750 Ry
     ewald contribution        =   -1000.03416894 Ry

     convergence has been achieved in  18 iterations

     Writing all to output data dir ././tmp1/Ni4W.save/ :
     XML data file, charge density, pseudopotentials, collected wavefunctions

     init_run     :      0.95s CPU      1.05s WALL (       1 calls)
     electrons    :     63.97s CPU     65.66s WALL (       1 calls)

     Called by init_run:
     wfcinit      :      0.91s CPU      0.96s WALL (       1 calls)
     potinit      :      0.01s CPU      0.01s WALL (       1 calls)
     hinit0       :      0.03s CPU      0.06s WALL (       1 calls)

     Called by electrons:
     c_bands      :     59.15s CPU     60.86s WALL (      18 calls)
     sum_band     :      4.77s CPU      4.73s WALL (      18 calls)
     v_of_rho     :      0.04s CPU      0.05s WALL (      19 calls)
     mix_rho      :      0.01s CPU      0.01s WALL (      18 calls)

     Called by c_bands:
     init_us_2    :      0.43s CPU      0.43s WALL (    2886 calls)
     ccgdiagg     :     48.44s CPU     49.42s WALL (    1404 calls)
     wfcrot       :     11.12s CPU     11.90s WALL (    1404 calls)

     Called by *cgdiagg:
     h_psi        :     42.74s CPU     44.41s WALL (  224514 calls)

     Called by h_psi:
     h_psi:calbec :      6.92s CPU      7.68s WALL (  224514 calls)
     vloc_psi     :     32.32s CPU     33.23s WALL (  224514 calls)
     add_vuspsi   :      3.01s CPU      3.04s WALL (  224514 calls)
     hs_1psi      :     33.76s CPU     34.66s WALL (  223110 calls)
     s_1psi       :      4.88s CPU      4.89s WALL (  223110 calls)

     General routines
     calbec       :     11.38s CPU     12.17s WALL (  447624 calls)
     fft          :      0.02s CPU      0.04s WALL (     190 calls)
     ffts         :      0.00s CPU      0.00s WALL (      18 calls)
     fftw         :     33.10s CPU     33.96s WALL (  665244 calls)

     Parallel routines

     PWSCF        :   1m 5.11s CPU   1m 7.01s WALL


   This run was terminated on:  13:46:48   5Aug2024            

=------------------------------------------------------------------------------=
   JOB DONE.
=------------------------------------------------------------------------------=
