
     Program PW2WANNIER v.7.3.1 starts on  5Aug2024 at 13:48:55 

     This program is part of the open-source Quantum ESPRESSO suite
     for quantum simulation of materials; please cite
         "P. Giannozzi et al., J. Phys.:Condens. Matter 21 395502 (2009);
         "P. Giannozzi et al., J. Phys.:Condens. Matter 29 465901 (2017);
         "P. Giannozzi et al., J. Chem. Phys. 152 154105 (2020);
          URL http://www.quantum-espresso.org", 
     in publications or presentations arising from this work. More details at
     http://www.quantum-espresso.org/quote

     Parallel version (MPI), running on     8 processors

     MPI processes distributed on     1 nodes
     R & G space division:  proc/nbgrp/npool/nimage =       8
     11239 MiB available memory on the printing compute node when the environment starts


     Reading nscf_save data

     Reading xml data from directory:

     ././tmp1/Ni4W.save/

     IMPORTANT: XC functional enforced from input :
     Exchange-correlation= PBE
                           (   1   4   3   4   0   0   0)
     Any further DFT definition will be discarded
     Please, verify this is what you really want


     Parallelization info
     --------------------
     sticks:   dense  smooth     PW     G-vecs:    dense   smooth      PW
     Min         137     137     45                 2357     2357     466
     Max         138     138     46                 2359     2359     468
     Sum        1097    1097    367                18859    18859    3741

     Using Slab Decomposition


     Check: negative core charge=   -0.000064
     Reading collected, re-writing distributed wavefunctions

  Spin CASE ( default = unpolarized )

  Wannier mode is: standalone     

  -----------------
  *** Reading nnkp 
  -----------------

  Checking info from wannier.nnkp file

  - Real lattice is ok
  - Reciprocal lattice is ok
  - K-points are ok
  - Number of wannier functions is ok (  9)
  - All guiding functions are given 

  Projections:
    0.000000    0.354960    0.219798  1  1  1    1.000000
    0.000000    0.354960    0.219798  1  2  1    1.000000
    0.000000    0.354960    0.219798  1  3  1    1.000000
    0.393390    0.038430   -0.243594  1  1  1    1.000000
    0.393390    0.038430   -0.243594  1  2  1    1.000000
    0.393390    0.038430   -0.243594  1  3  1    1.000000
    0.254347    0.254347   -0.377294  1  1  1    1.000000
    0.254347    0.254347   -0.377294  1  2  1    1.000000
    0.254347    0.254347   -0.377294  1  3  1    1.000000

  Reading data about k-point neighbours 

  All neighbours are found 

  Opening pp-files 


  -----------------------------
  *** A matrix is not computed 
  -----------------------------

  ---------------
  *** Compute  M 
  ---------------

  Number of local k points =       64
       1       2       3       4       5       6       7       8       9      10
      11      12      13      14      15      16      17      18      19      20
      21      22      23      24      25      26      27      28      29      30
      31      32      33      34      35      36      37      38      39      40
      41      42      43      44      45      46      47      48      49      50
      51      52      53      54      55      56      57      58      59      60
      61      62      63      64
  MMN calculated

  -----------------------------------
  *** Orbital terms are not computed 
  -----------------------------------

  -----------------------------------
  *** SHC terms are not computed 
  -----------------------------------

  ----------------
  *** Write bands 
  ----------------


  -----------------------------
  *** Plot info is not printed 
  -----------------------------

  -----------------------------
  *** Parity info is not printed 
  -----------------------------

  ------------
  *** Stop pp 
  ------------


     init_pw2wan  :      0.35s CPU      0.41s WALL (       1 calls)
     compute_mmn  :     17.69s CPU     19.83s WALL (       1 calls)

     Internal routines:
     compute_u_kb :      4.40s CPU      4.45s WALL (     768 calls)

     PW2WANNIER   :     18.05s CPU     20.25s WALL


   This run was terminated on:  13:49:16   5Aug2024            

=------------------------------------------------------------------------------=
   JOB DONE.
=------------------------------------------------------------------------------=

