
     Program PWSCF v.7.3.1 starts on  5Aug2024 at 13:46:48 

     This program is part of the open-source Quantum ESPRESSO suite
     for quantum simulation of materials; please cite
         "P. Giannozzi et al., J. Phys.:Condens. Matter 21 395502 (2009);
         "P. Giannozzi et al., J. Phys.:Condens. Matter 29 465901 (2017);
         "P. Giannozzi et al., J. Chem. Phys. 152 154105 (2020);
          URL http://www.quantum-espresso.org", 
     in publications or presentations arising from this work. More details at
     http://www.quantum-espresso.org/quote

     Parallel version (MPI), running on     8 processors

     MPI processes distributed on     1 nodes
     11828 MiB available memory on the printing compute node when the environment starts

     Reading input from ./tmp1/Ni4W.nscf.in
Warning: card &IONS ignored
Warning: card / ignored
Warning: card &CELL ignored
Warning: card / ignored
Warning: card &FCP ignored
Warning: card / ignored
Warning: card &RISM ignored
Warning: card / ignored

     Current dimensions of program PWSCF are:
     Max number of different atomic species (ntypx) = 10
     Max number of k-points (npk) =  40000
     Max angular momentum in pseudopotentials (lmaxx) =  4

     Atomic positions and unit cell read from directory:
     ././tmp1/Ni4W.save/


     R & G space division:  proc/nbgrp/npool/nimage =       8
     Subspace diagonalization in iterative solution of the eigenvalue problem:
     a serial algorithm will be used


     Parallelization info
     --------------------
     sticks:   dense  smooth     PW     G-vecs:    dense   smooth      PW
     Min         137     137     45                 2357     2357     466
     Max         138     138     46                 2359     2359     468
     Sum        1097    1097    367                18859    18859    3741

     Using Slab Decomposition



     bravais-lattice index     =            0
     lattice parameter (alat)  =       8.3687  a.u.
     unit-cell volume          =     394.5250 (a.u.)^3
     number of atoms/cell      =            5
     number of atomic types    =            2
     number of electrons       =        86.00
     number of Kohn-Sham states=          140
     kinetic-energy cutoff     =      50.0000  Ry
     charge density cutoff     =     200.0000  Ry
     Exchange-correlation= PBE
                           (   1   4   3   4   0   0   0)

     celldm(1)=   8.368705  celldm(2)=   0.000000  celldm(3)=   0.000000
     celldm(4)=   0.000000  celldm(5)=   0.000000  celldm(6)=   0.000000

     crystal axes: (cart. coord. in units of alat)
               a(1) = (  -0.647737   0.647737   0.401091 )  
               a(2) = (   0.647737   0.647737   0.401091 )  
               a(3) = (   0.647737   0.647737  -0.401091 )  

     reciprocal axes: (cart. coord. in units 2 pi/alat)
               b(1) = ( -0.771918  0.771918  0.000000 )  
               b(2) = (  0.771918  0.000000  1.246601 )  
               b(3) = (  0.000000  0.771918 -1.246601 )  


     PseudoPot. # 1 for Ni read from file:
     ../fromEleni/Ni4W/Ni.upf
     MD5 check sum: 14a7e289c5fff9cacaba393040e62f02
     Pseudo is Norm-conserving + core correction, Zval = 18.0
     Generated using ONCVPSP code by D. R. Hamann
     Using radial grid of 1372 points,  6 beta functions with: 
                l(1) =   0
                l(2) =   0
                l(3) =   1
                l(4) =   1
                l(5) =   2
                l(6) =   2

     PseudoPot. # 2 for W  read from file:
     ../fromEleni/Ni4W/W.upf
     MD5 check sum: 75b1d432d85d028982bb81b068264ebf
     Pseudo is Norm-conserving + core correction, Zval = 14.0
     Generated using ONCVPSP code by D. R. Hamann
     Using radial grid of 1396 points,  8 beta functions with: 
                l(1) =   0
                l(2) =   0
                l(3) =   1
                l(4) =   1
                l(5) =   2
                l(6) =   2
                l(7) =   3
                l(8) =   3

     atomic species   valence    mass     pseudopotential
     Ni               18.00    58.69340     Ni( 1.00)
     W                14.00   183.84000     W ( 1.00)

     No symmetry found



   Cartesian axes

     site n.     atom                  positions (alat units)
         1        Ni     tau(   1) = (   0.2584810   0.5185467   0.0000000  )
         2        Ni     tau(   2) = (   0.1291902   0.9062180   0.4010906  )
         3        Ni     tau(   3) = (   1.1662837   0.3892559   0.4010906  )
         4        Ni     tau(   4) = (   1.0369928   0.7769272  -0.0000000  )
         5        W      tau(   5) = (   0.0000000   0.0000000   0.0000000  )

     number of k points=    64  Marzari-Vanderbilt smearing, width (Ry)=  0.0200
                       cart. coord. in units 2pi/alat
        k(    1) = (   0.0000000   0.0000000   0.0000000), wk =   0.0312500
        k(    2) = (   0.0000000   0.1929796  -0.3116502), wk =   0.0312500
        k(    3) = (   0.0000000   0.3859592  -0.6233005), wk =   0.0312500
        k(    4) = (   0.0000000   0.5789387  -0.9349507), wk =   0.0312500
        k(    5) = (   0.1929796   0.0000000   0.3116502), wk =   0.0312500
        k(    6) = (   0.1929796   0.1929796   0.0000000), wk =   0.0312500
        k(    7) = (   0.1929796   0.3859592  -0.3116502), wk =   0.0312500
        k(    8) = (   0.1929796   0.5789387  -0.6233005), wk =   0.0312500
        k(    9) = (   0.3859592   0.0000000   0.6233005), wk =   0.0312500
        k(   10) = (   0.3859592   0.1929796   0.3116502), wk =   0.0312500
        k(   11) = (   0.3859592   0.3859592   0.0000000), wk =   0.0312500
        k(   12) = (   0.3859592   0.5789387  -0.3116502), wk =   0.0312500
        k(   13) = (   0.5789387   0.0000000   0.9349507), wk =   0.0312500
        k(   14) = (   0.5789387   0.1929796   0.6233005), wk =   0.0312500
        k(   15) = (   0.5789387   0.3859592   0.3116502), wk =   0.0312500
        k(   16) = (   0.5789387   0.5789387   0.0000000), wk =   0.0312500
        k(   17) = (  -0.1929796   0.1929796   0.0000000), wk =   0.0312500
        k(   18) = (  -0.1929796   0.3859592  -0.3116502), wk =   0.0312500
        k(   19) = (  -0.1929796   0.5789387  -0.6233005), wk =   0.0312500
        k(   20) = (  -0.1929796   0.7719183  -0.9349507), wk =   0.0312500
        k(   21) = (   0.0000000   0.1929796   0.3116502), wk =   0.0312500
        k(   22) = (   0.0000000   0.3859592   0.0000000), wk =   0.0312500
        k(   23) = (   0.0000000   0.5789387  -0.3116502), wk =   0.0312500
        k(   24) = (   0.0000000   0.7719183  -0.6233005), wk =   0.0312500
        k(   25) = (   0.1929796   0.1929796   0.6233005), wk =   0.0312500
        k(   26) = (   0.1929796   0.3859592   0.3116502), wk =   0.0312500
        k(   27) = (   0.1929796   0.5789387   0.0000000), wk =   0.0312500
        k(   28) = (   0.1929796   0.7719183  -0.3116502), wk =   0.0312500
        k(   29) = (   0.3859592   0.1929796   0.9349507), wk =   0.0312500
        k(   30) = (   0.3859592   0.3859592   0.6233005), wk =   0.0312500
        k(   31) = (   0.3859592   0.5789387   0.3116502), wk =   0.0312500
        k(   32) = (   0.3859592   0.7719183   0.0000000), wk =   0.0312500
        k(   33) = (  -0.3859592   0.3859592   0.0000000), wk =   0.0312500
        k(   34) = (  -0.3859592   0.5789387  -0.3116502), wk =   0.0312500
        k(   35) = (  -0.3859592   0.7719183  -0.6233005), wk =   0.0312500
        k(   36) = (  -0.3859592   0.9648979  -0.9349507), wk =   0.0312500
        k(   37) = (  -0.1929796   0.3859592   0.3116502), wk =   0.0312500
        k(   38) = (  -0.1929796   0.5789387   0.0000000), wk =   0.0312500
        k(   39) = (  -0.1929796   0.7719183  -0.3116502), wk =   0.0312500
        k(   40) = (  -0.1929796   0.9648979  -0.6233005), wk =   0.0312500
        k(   41) = (   0.0000000   0.3859592   0.6233005), wk =   0.0312500
        k(   42) = (   0.0000000   0.5789387   0.3116502), wk =   0.0312500
        k(   43) = (   0.0000000   0.7719183   0.0000000), wk =   0.0312500
        k(   44) = (   0.0000000   0.9648979  -0.3116502), wk =   0.0312500
        k(   45) = (   0.1929796   0.3859592   0.9349507), wk =   0.0312500
        k(   46) = (   0.1929796   0.5789387   0.6233005), wk =   0.0312500
        k(   47) = (   0.1929796   0.7719183   0.3116502), wk =   0.0312500
        k(   48) = (   0.1929796   0.9648979   0.0000000), wk =   0.0312500
        k(   49) = (  -0.5789387   0.5789387   0.0000000), wk =   0.0312500
        k(   50) = (  -0.5789387   0.7719183  -0.3116502), wk =   0.0312500
        k(   51) = (  -0.5789387   0.9648979  -0.6233005), wk =   0.0312500
        k(   52) = (  -0.5789387   1.1578775  -0.9349507), wk =   0.0312500
        k(   53) = (  -0.3859592   0.5789387   0.3116502), wk =   0.0312500
        k(   54) = (  -0.3859592   0.7719183   0.0000000), wk =   0.0312500
        k(   55) = (  -0.3859592   0.9648979  -0.3116502), wk =   0.0312500
        k(   56) = (  -0.3859592   1.1578775  -0.6233005), wk =   0.0312500
        k(   57) = (  -0.1929796   0.5789387   0.6233005), wk =   0.0312500
        k(   58) = (  -0.1929796   0.7719183   0.3116502), wk =   0.0312500
        k(   59) = (  -0.1929796   0.9648979   0.0000000), wk =   0.0312500
        k(   60) = (  -0.1929796   1.1578775  -0.3116502), wk =   0.0312500
        k(   61) = (   0.0000000   0.5789387   0.9349507), wk =   0.0312500
        k(   62) = (   0.0000000   0.7719183   0.6233005), wk =   0.0312500
        k(   63) = (   0.0000000   0.9648979   0.3116502), wk =   0.0312500
        k(   64) = (   0.0000000   1.1578775   0.0000000), wk =   0.0312500

     Dense  grid:    18859 G-vectors     FFT dimensions: (  40,  40,  40)

     Estimated max dynamical RAM per process >       9.18 MB

     Estimated total dynamical RAM >      73.46 MB

     Check: negative core charge=   -0.000064

     The potential is recalculated from file :
     ././tmp1/Ni4W.save/charge-density

     Starting wfcs are random

     Band Structure Calculation
     CG style diagonalization
     c_bands:  1 eigenvalues not converged
     c_bands:  1 eigenvalues not converged
     c_bands:  1 eigenvalues not converged
     c_bands:  1 eigenvalues not converged
     c_bands:  1 eigenvalues not converged
     c_bands:  1 eigenvalues not converged
     c_bands:  1 eigenvalues not converged
     c_bands:  1 eigenvalues not converged
     c_bands:  1 eigenvalues not converged
     c_bands:  1 eigenvalues not converged
     c_bands:  1 eigenvalues not converged
     c_bands:  2 eigenvalues not converged
     c_bands:  1 eigenvalues not converged
     c_bands:  1 eigenvalues not converged
     c_bands:  1 eigenvalues not converged
     c_bands:  2 eigenvalues not converged
     c_bands:  1 eigenvalues not converged

     ethr =  1.16E-13,  avg # of iterations = 63.7

     total cpu time spent up to now is      126.6 secs

     End of band structure calculation

          k = 0.0000 0.0000 0.0000 (  2407 PWs)   bands (ev):

   -87.5176 -87.4839 -87.4839 -87.4837 -54.1432 -46.5835 -46.5835 -46.5476
   -46.5330 -46.4463 -46.4440 -46.4440 -46.4347 -46.4347 -46.3806 -46.3671
   -46.3425 -18.9070 -18.9070 -18.8787  10.6633  15.5550  15.6802  16.2935
    16.2935  16.4335  16.4335  16.6439  16.6627  16.9588  17.1452  17.1452
    17.2390  17.5560  17.6256  17.6256  18.3389  18.6940  18.6940  18.7646
    19.5570  19.7028  19.9597  20.9023  21.5698  21.5698  23.5469  23.5469
    24.5571  27.5403  29.0479  30.4265  30.4265  31.5126  32.2283  32.2283
    32.2423  33.1650  33.1650  34.5002  36.4960  36.5067  40.2597  44.3581
    44.3758  44.3758  45.6298  46.5962  46.8509  47.3105  47.3105  47.4220
    48.1244  48.1244  50.4262  50.4576  51.2177  51.2177  52.2850  54.1977
    54.1977  56.6216  56.6860  56.6860  58.1963  58.3627  59.4636  59.4636
    59.6835  60.5401  60.8519  60.9171  60.9171  63.2549  63.6194  63.6194
    64.3528  65.9209  67.9038  68.5575  68.5575  68.7999  69.3978  69.3978
    69.5957  70.1417  70.3000  71.8495  73.3002  74.2578  74.2578  75.2042
    75.2042  76.2606  76.5700  77.8681  77.8681  77.9177  78.2958  78.2958
    78.5251  79.9088  80.7276  81.3507  81.8074  83.0360  83.4625  83.4625
    84.0687  85.9380  85.9380  86.7190  86.8450  86.8450  86.9512  88.9205
    88.9205  89.2566  89.4156  89.6578

          k = 0.0000 0.1930-0.3117 (  2365 PWs)   bands (ev):

   -87.5040 -87.4808 -87.4777 -87.4770 -54.1425 -46.5073 -46.4854 -46.4773
   -46.4509 -46.4274 -46.3892 -46.3842 -46.3571 -46.3400 -46.3296 -46.3055
   -46.2840 -18.9085 -18.9046 -18.9039  11.8519  15.4082  15.5770  15.9468
    16.1876  16.3802  16.5061  16.7533  17.2169  17.2991  17.3905  17.7479
    17.8041  17.8758  17.9129  18.0032  18.1758  18.6066  18.6280  18.7951
    19.2545  19.4919  20.0878  20.5288  21.0384  21.2031  22.9739  23.6404
    25.2364  26.6849  27.7621  28.2944  29.0781  29.7531  31.3705  33.5636
    35.2978  35.5964  37.0200  37.4062  38.0316  38.6029  40.2197  41.4573
    41.8677  42.1380  42.6847  45.0124  45.8114  46.5713  48.0203  48.7440
    48.9795  50.5701  51.0748  51.7922  52.2919  52.5269  53.6303  53.7888
    54.6565  55.0834  55.8993  56.7997  57.2219  57.5052  58.0164  58.4333
    59.4387  59.8579  60.8148  61.2273  61.7941  62.7538  63.2123  64.2979
    64.6357  65.4507  66.7902  66.9771  67.6735  68.5954  69.1214  69.7453
    70.4596  71.0222  71.7698  72.2762  73.0599  73.7851  74.4066  75.3495
    76.2240  76.8025  77.7462  78.3506  78.8546  79.3031  79.4828  80.1336
    80.8076  80.8738  81.1083  81.8695  82.3414  82.5303  83.0033  83.5567
    84.0319  84.2213  85.1317  85.4248  85.8995  86.3206  86.6688  86.8776
    87.7217  88.0041  88.6616  88.8634

          k = 0.0000 0.3860-0.6233 (  2348 PWs)   bands (ev):

   -87.4859 -87.4850 -87.4802 -87.4769 -54.1420 -46.4649 -46.4590 -46.4503
   -46.4384 -46.3889 -46.3590 -46.3489 -46.3441 -46.3332 -46.2983 -46.2842
   -46.2511 -18.9369 -18.9031 -18.9029  14.2381  14.7081  14.9388  15.9967
    16.5299  16.5913  16.8656  16.8817  16.9950  17.2739  17.3584  17.4889
    17.6321  17.6876  17.8461  18.1721  18.6276  18.6451  18.9146  19.2110
    19.4042  19.4475  19.8460  20.0523  20.9597  21.3441  21.6709  22.5158
    23.2761  25.6297  27.7937  28.2601  30.8228  31.4601  32.8042  33.9955
    34.7525  35.0569  37.0207  38.1604  38.9389  38.9865  40.3517  41.7623
    42.5456  43.3811  44.8170  44.8361  45.9897  46.0508  47.1840  47.2000
    48.0654  49.2228  49.4014  51.0018  51.3268  51.7277  52.6972  53.7670
    53.8317  55.3977  56.2610  56.3324  56.8899  57.9589  58.2779  59.8036
    59.9970  61.4054  61.5906  62.0600  63.1094  63.3515  63.9582  64.4164
    64.4321  65.4247  66.5869  66.8121  68.2468  68.9552  69.2921  69.4169
    70.3394  70.4001  71.1637  71.6161  72.5049  72.9415  73.4471  73.9674
    74.3650  74.7953  75.9123  77.6162  78.2909  79.5355  80.3068  80.3102
    81.0159  81.1952  81.7291  82.4236  82.8713  82.9436  83.4600  83.9733
    84.6480  85.1025  85.3669  85.6992  86.2422  86.8375  87.5312  87.8237
    88.3584  89.6476  89.9579  90.5307

          k = 0.0000 0.5789-0.9350 (  2365 PWs)   bands (ev):

   -87.5040 -87.4808 -87.4777 -87.4770 -54.1425 -46.5073 -46.4854 -46.4773
   -46.4509 -46.4274 -46.3892 -46.3842 -46.3571 -46.3400 -46.3296 -46.3055
   -46.2840 -18.9085 -18.9046 -18.9039  11.8519  15.4082  15.5770  15.9468
    16.1876  16.3802  16.5061  16.7533  17.2169  17.2991  17.3905  17.7479
    17.8041  17.8758  17.9129  18.0032  18.1758  18.6066  18.6280  18.7951
    19.2545  19.4919  20.0878  20.5288  21.0384  21.2031  22.9739  23.6404
    25.2364  26.6849  27.7621  28.2944  29.0781  29.7531  31.3705  33.5636
    35.2978  35.5964  37.0200  37.4062  38.0316  38.6029  40.2197  41.4573
    41.8677  42.1380  42.6847  45.0124  45.8114  46.5713  48.0203  48.7440
    48.9795  50.5701  51.0748  51.7922  52.2919  52.5269  53.6303  53.7888
    54.6565  55.0834  55.8993  56.7997  57.2219  57.5052  58.0164  58.4333
    59.4387  59.8579  60.8148  61.2273  61.7941  62.7538  63.2123  64.2979
    64.6357  65.4507  66.7902  66.9771  67.6735  68.5954  69.1214  69.7453
    70.4596  71.0222  71.7698  72.2762  73.0599  73.7851  74.4066  75.3495
    76.2240  76.8025  77.7462  78.3506  78.8546  79.3031  79.4828  80.1336
    80.8076  80.8738  81.1083  81.8695  82.3414  82.5303  83.0033  83.5567
    84.0319  84.2213  85.1317  85.4248  85.8995  86.3206  86.6688  86.8776
    87.7217  88.0041  88.6616  88.8634

          k = 0.1930 0.0000 0.3117 (  2365 PWs)   bands (ev):

   -87.5040 -87.4808 -87.4777 -87.4770 -54.1425 -46.5073 -46.4854 -46.4773
   -46.4509 -46.4274 -46.3892 -46.3842 -46.3571 -46.3400 -46.3296 -46.3055
   -46.2840 -18.9085 -18.9046 -18.9039  11.8519  15.4082  15.5770  15.9468
    16.1876  16.3802  16.5061  16.7533  17.2169  17.2991  17.3905  17.7479
    17.8041  17.8758  17.9129  18.0032  18.1758  18.6066  18.6280  18.7951
    19.2545  19.4919  20.0878  20.5288  21.0384  21.2031  22.9739  23.6404
    25.2364  26.6849  27.7621  28.2944  29.0781  29.7531  31.3705  33.5636
    35.2978  35.5964  37.0200  37.4062  38.0316  38.6029  40.2197  41.4573
    41.8677  42.1380  42.6847  45.0124  45.8114  46.5713  48.0203  48.7440
    48.9795  50.5701  51.0748  51.7922  52.2919  52.5269  53.6303  53.7888
    54.6565  55.0834  55.8993  56.7997  57.2219  57.5052  58.0164  58.4333
    59.4387  59.8579  60.8148  61.2273  61.7941  62.7538  63.2123  64.2979
    64.6357  65.4507  66.7902  66.9771  67.6735  68.5954  69.1214  69.7453
    70.4596  71.0222  71.7698  72.2762  73.0599  73.7851  74.4066  75.3495
    76.2240  76.8025  77.7462  78.3506  78.8546  79.3031  79.4828  80.1336
    80.8076  80.8738  81.1083  81.8695  82.3414  82.5303  83.0033  83.5567
    84.0319  84.2213  85.1317  85.4248  85.8995  86.3206  86.6688  86.8776
    87.7217  88.0041  88.6616  88.8634

          k = 0.1930 0.1930 0.0000 (  2371 PWs)   bands (ev):

   -87.5050 -87.4837 -87.4791 -87.4760 -54.1433 -46.5269 -46.4966 -46.4630
   -46.4440 -46.4317 -46.4256 -46.3994 -46.3603 -46.3527 -46.3413 -46.3257
   -46.2755 -18.9105 -18.9046 -18.8781  11.3287  15.0821  15.1108  15.8423
    15.9308  16.2895  16.5479  16.5932  16.9108  17.1379  17.4285  17.4288
    17.6470  17.8406  17.8665  18.5621  18.6922  18.7796  18.9399  19.1273
    19.1623  19.5514  20.0295  20.9496  21.2736  21.8932  21.9271  23.5422
    25.3998  28.7101  28.8465  29.5340  29.8322  30.9366  31.5694  32.0779
    32.8905  33.3969  35.5931  35.9917  38.1446  38.6448  40.2745  41.4873
    42.5653  42.7638  44.9322  45.0878  45.4223  45.5360  46.6520  47.7294
    48.6563  50.7835  51.3123  51.6355  52.0753  52.3935  52.7422  53.0961
    54.9366  56.0076  56.2350  56.5218  56.9285  57.5394  57.9875  59.7654
    61.2699  61.7220  61.8343  62.2484  63.3911  64.2915  64.5099  65.0257
    65.6128  66.0092  66.6669  66.8735  67.4934  68.2552  69.4834  69.6582
    69.9311  70.5242  70.9037  71.3083  71.5503  73.2103  73.5574  73.6601
    75.5969  75.7191  76.2531  76.9554  77.3325  77.8950  78.2915  79.7488
    80.3071  80.5385  80.6243  80.6619  82.1452  82.7652  83.0562  83.3494
    84.0018  84.6255  85.4097  85.6093  86.1213  86.3150  86.4606  87.4169
    87.7654  87.7809  88.7466  88.9169

          k = 0.1930 0.3860-0.3117 (  2358 PWs)   bands (ev):

   -87.4961 -87.4840 -87.4783 -87.4765 -54.1428 -46.4745 -46.4696 -46.4642
   -46.4358 -46.4087 -46.3920 -46.3753 -46.3527 -46.3355 -46.3158 -46.2983
   -46.2968 -18.9091 -18.9078 -18.9030  12.9583  14.6818  15.4630  15.5237
    15.9170  16.0612  16.4202  16.7943  17.1840  17.3351  17.4926  17.6392
    17.8087  17.9092  18.1089  18.1768  18.5241  18.6241  18.9057  19.0621
    19.4474  19.5405  19.7251  20.1796  21.2862  21.6676  21.7121  23.4560
    24.4404  25.8099  27.8870  29.3323  30.7672  31.5054  32.4268  33.7746
    34.6537  34.9245  35.4301  37.8164  38.3299  39.0284  39.9737  40.7441
    41.6090  42.5449  44.2335  44.5223  45.7355  46.0175  47.6643  48.4945
    48.9837  49.7224  49.9502  50.4680  51.2908  51.8442  52.7194  53.6996
    54.2589  55.4531  56.5408  57.1087  57.8470  58.3862  59.1142  59.2904
    60.5590  60.9954  61.5639  62.3714  62.8937  63.5071  63.9013  64.1334
    64.3375  65.1527  66.9665  67.9006  68.2320  69.2696  69.4275  69.5252
    70.2857  70.5688  71.7582  72.3684  72.8269  73.6246  73.6620  73.8713
    74.7290  75.4697  76.4320  76.8626  77.4542  78.1277  78.4256  78.9185
    79.1992  79.9710  80.7849  81.0045  81.5658  82.0776  82.5425  83.5395
    83.9386  84.2941  85.1245  85.4208  85.8635  86.2543  86.4004  87.4336
    88.5409  88.9287  89.4580  90.4972

          k = 0.1930 0.5789-0.6233 (  2344 PWs)   bands (ev):

   -87.4860 -87.4835 -87.4791 -87.4756 -54.1419 -46.4693 -46.4515 -46.4314
   -46.4163 -46.3645 -46.3475 -46.3423 -46.3338 -46.3113 -46.2956 -46.2785
   -46.2692 -18.9368 -18.9030 -18.9028  14.1335  14.7260  15.1590  15.7278
    16.3976  16.5447  16.8181  17.0303  17.2293  17.2992  17.4236  17.6615
    17.8220  17.9456  18.0731  18.1877  18.3292  18.5721  18.6811  18.9546
    19.1469  19.5043  19.7856  19.9945  21.0902  21.5009  22.2508  22.6549
    22.8392  25.9450  27.5908  28.7733  29.5236  32.1738  32.8137  32.8476
    34.4282  36.1368  37.8977  38.8796  39.0943  39.4729  40.7867  40.9667
    41.7778  42.9575  43.3768  44.1021  44.8836  46.0034  48.0560  48.5640
    48.7116  49.5193  50.3148  50.5429  51.2918  51.9074  52.8611  53.4408
    54.3487  55.3860  55.8215  56.6348  57.3783  57.7725  58.9784  59.3120
    59.6483  61.0473  61.2038  61.6267  62.3682  63.2331  63.5954  64.0901
    64.7920  65.9798  66.3822  66.8210  67.4351  68.0459  68.9288  69.6168
    70.5870  71.1228  72.0331  72.2707  72.9143  73.8655  74.3345  74.5214
    75.2419  76.5521  76.7790  77.2118  77.6952  78.1490  78.6037  79.5134
    79.7227  80.6244  81.1932  81.4693  82.2257  82.3629  82.8314  83.7112
    84.8026  84.9966  85.9521  86.7927  87.2824  87.6345  88.4273  88.7937
    89.1455  89.5710  90.0793  90.2970

          k = 0.3860 0.0000 0.6233 (  2348 PWs)   bands (ev):

   -87.4859 -87.4850 -87.4802 -87.4769 -54.1420 -46.4649 -46.4590 -46.4503
   -46.4384 -46.3889 -46.3590 -46.3489 -46.3441 -46.3332 -46.2983 -46.2842
   -46.2511 -18.9369 -18.9031 -18.9029  14.2381  14.7081  14.9388  15.9967
    16.5299  16.5913  16.8656  16.8817  16.9950  17.2739  17.3584  17.4889
    17.6321  17.6876  17.8461  18.1721  18.6276  18.6451  18.9146  19.2110
    19.4042  19.4475  19.8460  20.0523  20.9597  21.3441  21.6709  22.5158
    23.2761  25.6296  27.7937  28.2601  30.8228  31.4601  32.8042  33.9955
    34.7525  35.0569  37.0207  38.1604  38.9389  38.9865  40.3517  41.7623
    42.5456  43.3811  44.8170  44.8361  45.9897  46.0508  47.1840  47.2000
    48.0654  49.2228  49.4014  51.0018  51.3268  51.7277  52.6972  53.7670
    53.8317  55.3977  56.2610  56.3324  56.8899  57.9589  58.2779  59.8036
    59.9970  61.4054  61.5906  62.0600  63.1094  63.3515  63.9582  64.4164
    64.4321  65.4247  66.5869  66.8121  68.2468  68.9552  69.2921  69.4169
    70.3394  70.4001  71.1637  71.6161  72.5049  72.9415  73.4471  73.9674
    74.3650  74.7953  75.9123  77.6162  78.2909  79.5355  80.3068  80.3102
    81.0159  81.1952  81.7291  82.4236  82.8713  82.9436  83.4600  83.9733
    84.6480  85.1025  85.3669  85.6992  86.2422  86.8375  87.5312  87.8237
    88.3584  89.6476  89.9579  90.5307

          k = 0.3860 0.1930 0.3117 (  2358 PWs)   bands (ev):

   -87.4946 -87.4850 -87.4784 -87.4767 -54.1428 -46.4810 -46.4720 -46.4478
   -46.4305 -46.3899 -46.3835 -46.3770 -46.3720 -46.3411 -46.3254 -46.3063
   -46.2923 -18.9100 -18.9063 -18.9036  13.0164  14.4215  15.3908  15.6971
    15.9640  16.2228  16.4108  16.7005  17.1903  17.4574  17.6187  17.6817
    17.8603  17.9297  18.0004  18.2601  18.4503  18.6163  18.6974  18.8200
    19.5489  19.5845  19.6167  20.3991  21.1979  21.6609  21.7098  23.4698
    24.4212  25.9704  27.7296  29.0012  31.2455  31.9843  32.2724  33.1851
    34.2925  35.0978  36.2505  37.3460  38.0702  38.5332  40.0518  41.3693
    42.2788  43.0465  43.9565  44.3006  45.2379  45.6363  46.9647  48.5244
    48.8331  49.4600  49.8608  51.2689  51.7298  53.1247  53.4188  53.8568
    54.3918  55.0223  55.8741  56.2626  57.2619  57.8773  58.5813  60.0713
    60.4635  60.8958  61.3174  62.0744  63.1199  63.5181  64.4441  64.5372
    64.8482  65.7324  67.1339  67.7730  68.0748  68.4352  69.0405  70.3036
    70.7050  71.1859  71.6654  72.2320  72.4323  73.3089  73.3832  74.3080
    74.5843  75.3582  75.9709  76.4682  76.9194  77.5063  78.5524  79.1391
    79.7766  80.4767  80.9795  81.4443  81.6858  82.1636  82.4899  83.4444
    83.7226  84.6109  84.8216  85.4130  85.6791  86.2884  86.7266  87.0922
    88.0251  88.5271  89.7259  90.2374

          k = 0.3860 0.3860 0.0000 (  2346 PWs)   bands (ev):

   -87.4947 -87.4863 -87.4734 -87.4728 -54.1435 -46.4650 -46.4279 -46.4175
   -46.4041 -46.3999 -46.3978 -46.3868 -46.3650 -46.3075 -46.2990 -46.2767
   -46.2685 -18.9139 -18.9033 -18.8774  12.8158  13.4638  14.8074  15.6260
    15.8427  16.1894  16.3060  16.7125  17.0160  17.1003  17.7106  17.7361
    17.9065  18.1734  18.2701  18.4598  18.7026  18.7450  18.8871  19.1839
    19.4803  19.7539  20.6743  20.9200  21.0693  21.8403  22.2659  22.3338
    25.6360  27.6320  28.3319  29.4164  29.6984  30.9838  32.8973  33.1353
    33.7781  35.0916  35.9281  37.3505  37.6622  38.5043  38.7937  40.8586
    42.9289  43.5914  43.5926  44.3413  44.4573  45.8759  46.1066  47.5334
    48.9351  49.2762  49.6885  51.1241  51.6633  52.3784  52.9095  53.5932
    54.6182  55.9292  56.6113  58.0820  59.0367  59.2284  59.6238  59.8890
    60.0696  61.7654  62.1155  62.7098  63.5378  63.8153  65.5639  65.8565
    66.3145  66.7288  67.2213  67.3622  68.0100  68.2720  68.4950  69.2323
    69.8467  70.5244  71.2409  71.4026  71.6373  72.9792  73.3525  73.5415
    74.1873  74.9647  75.0931  75.5806  75.5939  76.4486  76.6268  77.9130
    79.9325  80.1686  80.8245  81.0758  82.6172  83.1203  83.4737  83.6741
    83.7641  84.5447  84.7109  85.1160  85.6130  85.6426  86.2051  87.0538
    87.0610  88.7560  89.0975  89.6363

          k = 0.3860 0.5789-0.3117 (  2358 PWs)   bands (ev):

   -87.4946 -87.4850 -87.4784 -87.4767 -54.1428 -46.4810 -46.4720 -46.4478
   -46.4305 -46.3899 -46.3835 -46.3770 -46.3720 -46.3411 -46.3254 -46.3063
   -46.2923 -18.9100 -18.9063 -18.9036  13.0164  14.4215  15.3908  15.6971
    15.9640  16.2228  16.4108  16.7005  17.1903  17.4574  17.6187  17.6817
    17.8603  17.9297  18.0004  18.2601  18.4503  18.6163  18.6974  18.8200
    19.5489  19.5845  19.6167  20.3991  21.1979  21.6609  21.7098  23.4698
    24.4212  25.9704  27.7296  29.0012  31.2455  31.9843  32.2724  33.1851
    34.2925  35.0978  36.2505  37.3460  38.0702  38.5332  40.0518  41.3693
    42.2788  43.0465  43.9565  44.3006  45.2379  45.6363  46.9647  48.5244
    48.8331  49.4600  49.8608  51.2689  51.7298  53.1247  53.4188  53.8568
    54.3918  55.0223  55.8741  56.2626  57.2619  57.8773  58.5813  60.0713
    60.4635  60.8958  61.3174  62.0744  63.1199  63.5181  64.4441  64.5372
    64.8482  65.7324  67.1339  67.7730  68.0748  68.4352  69.0405  70.3036
    70.7050  71.1859  71.6654  72.2320  72.4323  73.3089  73.3832  74.3080
    74.5843  75.3582  75.9709  76.4682  76.9194  77.5063  78.5524  79.1391
    79.7766  80.4767  80.9795  81.4443  81.6858  82.1636  82.4899  83.4444
    83.7226  84.6109  84.8216  85.4130  85.6791  86.2884  86.7266  87.0922
    88.0251  88.5271  89.7259  90.2374

          k = 0.5789 0.0000 0.9350 (  2365 PWs)   bands (ev):

   -87.5040 -87.4808 -87.4777 -87.4770 -54.1425 -46.5073 -46.4854 -46.4773
   -46.4509 -46.4274 -46.3892 -46.3842 -46.3571 -46.3400 -46.3296 -46.3055
   -46.2840 -18.9085 -18.9046 -18.9039  11.8519  15.4082  15.5770  15.9468
    16.1876  16.3802  16.5061  16.7533  17.2169  17.2991  17.3905  17.7479
    17.8041  17.8758  17.9129  18.0032  18.1758  18.6066  18.6280  18.7951
    19.2545  19.4919  20.0878  20.5288  21.0384  21.2031  22.9739  23.6404
    25.2364  26.6849  27.7621  28.2944  29.0781  29.7531  31.3705  33.5636
    35.2978  35.5964  37.0200  37.4062  38.0316  38.6029  40.2197  41.4573
    41.8677  42.1380  42.6847  45.0124  45.8114  46.5713  48.0203  48.7440
    48.9795  50.5701  51.0748  51.7922  52.2919  52.5269  53.6303  53.7888
    54.6565  55.0834  55.8993  56.7997  57.2219  57.5052  58.0164  58.4333
    59.4387  59.8579  60.8148  61.2273  61.7941  62.7538  63.2123  64.2979
    64.6357  65.4507  66.7902  66.9771  67.6735  68.5954  69.1214  69.7453
    70.4596  71.0222  71.7698  72.2762  73.0599  73.7851  74.4066  75.3495
    76.2240  76.8025  77.7462  78.3506  78.8546  79.3031  79.4828  80.1336
    80.8076  80.8738  81.1083  81.8695  82.3414  82.5303  83.0033  83.5567
    84.0319  84.2213  85.1317  85.4248  85.8995  86.3206  86.6688  86.8776
    87.7217  88.0041  88.6616  88.8634

          k = 0.5789 0.1930 0.6233 (  2344 PWs)   bands (ev):

   -87.4860 -87.4835 -87.4791 -87.4756 -54.1419 -46.4693 -46.4515 -46.4314
   -46.4163 -46.3645 -46.3475 -46.3423 -46.3338 -46.3113 -46.2956 -46.2785
   -46.2692 -18.9368 -18.9030 -18.9028  14.1335  14.7260  15.1590  15.7278
    16.3976  16.5447  16.8181  17.0303  17.2293  17.2992  17.4236  17.6615
    17.8220  17.9456  18.0731  18.1877  18.3292  18.5721  18.6811  18.9546
    19.1469  19.5043  19.7856  19.9945  21.0902  21.5009  22.2508  22.6549
    22.8392  25.9450  27.5908  28.7733  29.5236  32.1738  32.8137  32.8476
    34.4282  36.1368  37.8977  38.8796  39.0943  39.4729  40.7867  40.9667
    41.7778  42.9575  43.3768  44.1021  44.8836  46.0034  48.0560  48.5640
    48.7116  49.5193  50.3148  50.5429  51.2918  51.9074  52.8611  53.4408
    54.3487  55.3860  55.8215  56.6348  57.3783  57.7725  58.9784  59.3120
    59.6483  61.0473  61.2038  61.6267  62.3682  63.2331  63.5954  64.0901
    64.7920  65.9798  66.3822  66.8210  67.4351  68.0459  68.9288  69.6168
    70.5870  71.1228  72.0331  72.2707  72.9143  73.8655  74.3345  74.5214
    75.2419  76.5521  76.7790  77.2118  77.6952  78.1490  78.6037  79.5134
    79.7227  80.6244  81.1932  81.4693  82.2257  82.3629  82.8314  83.7112
    84.8026  84.9966  85.9521  86.7927  87.2824  87.6345  88.4273  88.7937
    89.1455  89.5710  90.0793  90.2970

          k = 0.5789 0.3860 0.3117 (  2358 PWs)   bands (ev):

   -87.4961 -87.4840 -87.4783 -87.4765 -54.1428 -46.4745 -46.4696 -46.4642
   -46.4358 -46.4087 -46.3920 -46.3753 -46.3527 -46.3355 -46.3158 -46.2983
   -46.2968 -18.9091 -18.9078 -18.9030  12.9583  14.6818  15.4630  15.5237
    15.9170  16.0612  16.4202  16.7943  17.1840  17.3351  17.4926  17.6392
    17.8087  17.9092  18.1089  18.1768  18.5241  18.6241  18.9057  19.0621
    19.4474  19.5405  19.7251  20.1796  21.2862  21.6676  21.7121  23.4560
    24.4404  25.8099  27.8870  29.3323  30.7672  31.5054  32.4268  33.7746
    34.6537  34.9245  35.4301  37.8164  38.3299  39.0284  39.9737  40.7441
    41.6090  42.5449  44.2335  44.5223  45.7355  46.0175  47.6643  48.4945
    48.9837  49.7224  49.9502  50.4680  51.2908  51.8442  52.7194  53.6996
    54.2589  55.4531  56.5408  57.1087  57.8470  58.3862  59.1142  59.2904
    60.5590  60.9954  61.5639  62.3714  62.8937  63.5071  63.9013  64.1334
    64.3375  65.1527  66.9665  67.9006  68.2320  69.2696  69.4275  69.5252
    70.2857  70.5688  71.7582  72.3684  72.8269  73.6246  73.6620  73.8713
    74.7290  75.4697  76.4320  76.8626  77.4542  78.1277  78.4256  78.9185
    79.1992  79.9710  80.7849  81.0045  81.5658  82.0776  82.5425  83.5395
    83.9386  84.2941  85.1245  85.4208  85.8635  86.2543  86.4004  87.4336
    88.5409  88.9287  89.4580  90.4972

          k = 0.5789 0.5789 0.0000 (  2371 PWs)   bands (ev):

   -87.5050 -87.4837 -87.4791 -87.4760 -54.1433 -46.5269 -46.4966 -46.4630
   -46.4440 -46.4317 -46.4256 -46.3994 -46.3603 -46.3527 -46.3413 -46.3257
   -46.2755 -18.9105 -18.9046 -18.8781  11.3287  15.0821  15.1108  15.8423
    15.9308  16.2895  16.5479  16.5932  16.9108  17.1379  17.4285  17.4288
    17.6470  17.8406  17.8665  18.5621  18.6922  18.7796  18.9399  19.1273
    19.1623  19.5514  20.0295  20.9496  21.2736  21.8932  21.9271  23.5422
    25.3998  28.7101  28.8465  29.5340  29.8322  30.9366  31.5694  32.0779
    32.8905  33.3969  35.5931  35.9917  38.1446  38.6448  40.2745  41.4873
    42.5653  42.7638  44.9322  45.0878  45.4223  45.5360  46.6520  47.7294
    48.6563  50.7835  51.3123  51.6355  52.0753  52.3935  52.7422  53.0961
    54.9366  56.0076  56.2350  56.5218  56.9285  57.5394  57.9875  59.7654
    61.2699  61.7220  61.8343  62.2484  63.3911  64.2915  64.5099  65.0257
    65.6128  66.0092  66.6669  66.8735  67.4934  68.2552  69.4834  69.6582
    69.9311  70.5242  70.9037  71.3083  71.5503  73.2103  73.5574  73.6601
    75.5969  75.7191  76.2531  76.9554  77.3325  77.8950  78.2915  79.7488
    80.3071  80.5385  80.6243  80.6619  82.1452  82.7652  83.0562  83.3494
    84.0018  84.6255  85.4097  85.6093  86.1213  86.3150  86.4606  87.4169
    87.7654  87.7809  88.7466  88.9169

          k =-0.1930 0.1930 0.0000 (  2371 PWs)   bands (ev):

   -87.5050 -87.4837 -87.4791 -87.4760 -54.1433 -46.5269 -46.4966 -46.4630
   -46.4440 -46.4317 -46.4256 -46.3994 -46.3603 -46.3527 -46.3413 -46.3257
   -46.2755 -18.9105 -18.9046 -18.8781  11.3287  15.0821  15.1108  15.8423
    15.9308  16.2894  16.5479  16.5932  16.9108  17.1379  17.4285  17.4288
    17.6470  17.8406  17.8665  18.5621  18.6922  18.7796  18.9399  19.1273
    19.1623  19.5514  20.0295  20.9496  21.2736  21.8932  21.9271  23.5422
    25.3998  28.7101  28.8465  29.5340  29.8322  30.9366  31.5694  32.0779
    32.8905  33.3969  35.5931  35.9917  38.1446  38.6448  40.2745  41.4873
    42.5653  42.7638  44.9322  45.0878  45.4223  45.5360  46.6520  47.7294
    48.6563  50.7835  51.3123  51.6355  52.0753  52.3935  52.7422  53.0961
    54.9366  56.0076  56.2350  56.5218  56.9285  57.5394  57.9875  59.7654
    61.2699  61.7220  61.8343  62.2484  63.3911  64.2915  64.5099  65.0257
    65.6128  66.0092  66.6669  66.8735  67.4934  68.2552  69.4834  69.6582
    69.9311  70.5242  70.9037  71.3083  71.5503  73.2103  73.5574  73.6601
    75.5969  75.7191  76.2531  76.9554  77.3325  77.8950  78.2915  79.7488
    80.3071  80.5385  80.6243  80.6619  82.1452  82.7652  83.0562  83.3494
    84.0018  84.6255  85.4097  85.6093  86.1213  86.3150  86.4606  87.4169
    87.7654  87.7809  88.7466  88.9169

          k =-0.1930 0.3860-0.3117 (  2358 PWs)   bands (ev):

   -87.4947 -87.4850 -87.4784 -87.4767 -54.1428 -46.4810 -46.4720 -46.4478
   -46.4305 -46.3899 -46.3835 -46.3770 -46.3720 -46.3411 -46.3254 -46.3063
   -46.2923 -18.9100 -18.9063 -18.9036  13.0164  14.4215  15.3908  15.6971
    15.9640  16.2228  16.4108  16.7005  17.1903  17.4574  17.6187  17.6817
    17.8603  17.9297  18.0004  18.2601  18.4503  18.6163  18.6974  18.8200
    19.5489  19.5845  19.6167  20.3991  21.1979  21.6609  21.7098  23.4698
    24.4212  25.9704  27.7296  29.0012  31.2455  31.9843  32.2725  33.1851
    34.2925  35.0978  36.2505  37.3460  38.0702  38.5332  40.0518  41.3693
    42.2788  43.0465  43.9565  44.3006  45.2379  45.6363  46.9647  48.5244
    48.8331  49.4600  49.8608  51.2689  51.7298  53.1247  53.4188  53.8568
    54.3918  55.0223  55.8741  56.2626  57.2619  57.8773  58.5813  60.0713
    60.4635  60.8958  61.3174  62.0744  63.1199  63.5181  64.4441  64.5372
    64.8482  65.7324  67.1339  67.7730  68.0748  68.4352  69.0405  70.3036
    70.7050  71.1859  71.6654  72.2320  72.4323  73.3089  73.3832  74.3080
    74.5843  75.3582  75.9709  76.4682  76.9194  77.5063  78.5524  79.1391
    79.7766  80.4767  80.9795  81.4443  81.6858  82.1636  82.4899  83.4444
    83.7226  84.6109  84.8216  85.4130  85.6791  86.2884  86.7266  87.0922
    88.0251  88.5271  89.7259  90.2374

          k =-0.1930 0.5789-0.6233 (  2344 PWs)   bands (ev):

   -87.4860 -87.4835 -87.4791 -87.4756 -54.1419 -46.4693 -46.4515 -46.4314
   -46.4163 -46.3645 -46.3475 -46.3423 -46.3338 -46.3113 -46.2956 -46.2785
   -46.2692 -18.9368 -18.9030 -18.9028  14.1335  14.7260  15.1590  15.7278
    16.3976  16.5447  16.8181  17.0303  17.2293  17.2992  17.4236  17.6615
    17.8220  17.9456  18.0731  18.1877  18.3292  18.5721  18.6811  18.9546
    19.1469  19.5043  19.7856  19.9945  21.0902  21.5009  22.2508  22.6549
    22.8392  25.9450  27.5908  28.7733  29.5236  32.1738  32.8137  32.8476
    34.4282  36.1368  37.8977  38.8796  39.0943  39.4729  40.7867  40.9667
    41.7778  42.9575  43.3768  44.1021  44.8836  46.0034  48.0560  48.5640
    48.7116  49.5193  50.3148  50.5429  51.2918  51.9074  52.8611  53.4408
    54.3487  55.3860  55.8215  56.6348  57.3783  57.7725  58.9784  59.3120
    59.6483  61.0473  61.2038  61.6267  62.3682  63.2331  63.5954  64.0901
    64.7920  65.9798  66.3822  66.8210  67.4351  68.0459  68.9288  69.6168
    70.5870  71.1228  72.0331  72.2707  72.9143  73.8655  74.3345  74.5214
    75.2419  76.5521  76.7790  77.2118  77.6952  78.1490  78.6037  79.5134
    79.7227  80.6244  81.1932  81.4693  82.2257  82.3629  82.8314  83.7112
    84.8026  84.9966  85.9521  86.7927  87.2824  87.6345  88.4273  88.7937
    89.1455  89.5710  90.0793  90.2970

          k =-0.1930 0.7719-0.9350 (  2365 PWs)   bands (ev):

   -87.5040 -87.4808 -87.4777 -87.4770 -54.1425 -46.5073 -46.4854 -46.4773
   -46.4509 -46.4274 -46.3892 -46.3842 -46.3571 -46.3400 -46.3296 -46.3055
   -46.2840 -18.9085 -18.9046 -18.9039  11.8519  15.4082  15.5770  15.9468
    16.1876  16.3802  16.5061  16.7533  17.2169  17.2991  17.3905  17.7479
    17.8041  17.8758  17.9129  18.0032  18.1758  18.6066  18.6280  18.7951
    19.2545  19.4919  20.0878  20.5288  21.0384  21.2031  22.9739  23.6404
    25.2364  26.6849  27.7621  28.2944  29.0781  29.7531  31.3705  33.5636
    35.2978  35.5964  37.0200  37.4062  38.0316  38.6029  40.2197  41.4573
    41.8677  42.1380  42.6847  45.0124  45.8114  46.5713  48.0203  48.7440
    48.9795  50.5701  51.0748  51.7922  52.2919  52.5269  53.6303  53.7888
    54.6565  55.0834  55.8993  56.7997  57.2219  57.5052  58.0164  58.4333
    59.4387  59.8579  60.8148  61.2273  61.7941  62.7538  63.2123  64.2979
    64.6357  65.4507  66.7902  66.9771  67.6735  68.5954  69.1214  69.7453
    70.4596  71.0222  71.7698  72.2762  73.0599  73.7851  74.4066  75.3495
    76.2240  76.8025  77.7462  78.3506  78.8546  79.3031  79.4828  80.1336
    80.8076  80.8738  81.1083  81.8695  82.3414  82.5303  83.0033  83.5567
    84.0319  84.2213  85.1317  85.4248  85.8995  86.3206  86.6688  86.8776
    87.7217  88.0041  88.6616  88.8634

          k = 0.0000 0.1930 0.3117 (  2365 PWs)   bands (ev):

   -87.5040 -87.4808 -87.4777 -87.4770 -54.1425 -46.5073 -46.4854 -46.4773
   -46.4509 -46.4274 -46.3892 -46.3842 -46.3571 -46.3400 -46.3296 -46.3055
   -46.2840 -18.9085 -18.9046 -18.9039  11.8519  15.4082  15.5770  15.9468
    16.1876  16.3802  16.5061  16.7533  17.2169  17.2991  17.3905  17.7479
    17.8041  17.8758  17.9129  18.0032  18.1758  18.6066  18.6280  18.7951
    19.2545  19.4919  20.0878  20.5288  21.0384  21.2031  22.9739  23.6404
    25.2364  26.6849  27.7621  28.2944  29.0781  29.7531  31.3705  33.5636
    35.2978  35.5964  37.0200  37.4062  38.0316  38.6029  40.2197  41.4573
    41.8677  42.1380  42.6847  45.0124  45.8114  46.5713  48.0203  48.7440
    48.9795  50.5701  51.0748  51.7922  52.2919  52.5269  53.6303  53.7888
    54.6565  55.0834  55.8993  56.7997  57.2219  57.5052  58.0164  58.4333
    59.4387  59.8579  60.8148  61.2273  61.7941  62.7538  63.2123  64.2979
    64.6357  65.4507  66.7902  66.9771  67.6735  68.5954  69.1214  69.7453
    70.4596  71.0222  71.7698  72.2762  73.0599  73.7851  74.4066  75.3495
    76.2240  76.8025  77.7462  78.3506  78.8546  79.3031  79.4828  80.1336
    80.8076  80.8738  81.1083  81.8695  82.3414  82.5303  83.0033  83.5567
    84.0319  84.2213  85.1317  85.4248  85.8995  86.3206  86.6688  86.8776
    87.7217  88.0041  88.6616  88.8634

          k = 0.0000 0.3860 0.0000 (  2362 PWs)   bands (ev):

   -87.4984 -87.4850 -87.4779 -87.4765 -54.1436 -46.5249 -46.4732 -46.4584
   -46.4454 -46.4233 -46.4073 -46.3630 -46.3545 -46.3238 -46.3165 -46.3123
   -46.2868 -18.9093 -18.9092 -18.8773  11.9637  14.8002  15.2627  15.5276
    15.8816  16.0372  16.1422  16.1530  17.0056  17.2437  17.2562  17.9575
    18.1582  18.2423  18.3012  18.4032  18.5496  18.8539  19.0720  19.1048
    19.1807  19.6634  19.8164  20.8389  21.2155  21.6156  21.8902  22.6989
    25.2139  26.6249  29.2236  30.1221  31.2132  31.4553  31.7280  32.8669
    34.6083  34.6816  35.9559  36.1770  36.7954  39.6630  40.0708  41.5636
    42.4485  42.5576  42.8589  44.1577  44.1733  45.0279  45.3774  46.8862
    48.7741  48.8564  50.4804  51.7752  52.0055  53.8349  53.9489  54.8445
    55.7071  55.8187  56.1555  57.9622  59.0056  59.0614  59.8588  60.5973
    60.9046  60.9829  61.7167  62.2139  62.3791  62.6987  63.4291  64.6005
    64.7318  65.5592  65.8554  66.6293  68.1868  68.7152  68.7908  69.7996
    70.5816  71.2357  72.2335  72.2835  72.9210  73.6819  74.1377  74.4409
    75.3173  75.4009  75.8655  76.0268  76.5445  77.9108  78.4682  78.8952
    79.5289  79.5794  79.8700  79.9945  80.7960  81.2974  81.9738  82.0693
    82.6602  83.5297  84.0934  85.0216  85.2254  86.1378  86.2016  86.7037
    87.7009  88.3697  88.6493  89.7278

          k = 0.0000 0.5789-0.3117 (  2349 PWs)   bands (ev):

   -87.4904 -87.4817 -87.4793 -87.4770 -54.1430 -46.4587 -46.4562 -46.4458
   -46.4227 -46.3952 -46.3816 -46.3753 -46.3502 -46.3223 -46.2900 -46.2701
   -46.2678 -18.9089 -18.9073 -18.9058  13.9503  14.8705  15.0806  15.2951
    15.7002  16.0310  16.4033  16.5716  17.0137  17.3849  17.7199  17.7256
    17.7562  17.8687  18.1116  18.2563  18.7105  18.8035  18.9093  19.3328
    19.5466  19.6239  19.7907  20.0327  21.2107  21.6906  21.8113  22.2620
    23.1823  24.3119  29.2769  30.0578  32.3444  33.5327  33.9501  34.0135
    34.4280  35.0698  36.2422  36.5599  37.9756  39.4536  39.9818  40.2103
    41.1937  42.2647  42.8760  43.6324  44.2485  44.5861  46.6433  46.9917
    49.4665  50.0571  50.8671  51.3206  51.8871  52.2958  53.3289  54.6352
    54.7066  55.3132  55.6468  57.1209  57.6393  57.8291  58.9769  60.2301
    61.3745  61.9531  62.3666  62.8223  63.2217  63.5246  64.8989  65.3495
    65.5545  65.8279  66.1202  67.1191  67.8773  68.4282  68.9592  69.7350
    70.1947  70.3010  71.2257  71.8997  72.1720  72.8172  73.7112  74.2045
    74.3453  74.9420  75.8093  76.1386  76.6971  77.4929  77.9068  78.4349
    78.8073  79.5766  80.2328  80.8456  81.3553  81.9860  82.3935  83.0866
    83.5804  83.8439  85.9560  86.4693  86.7527  87.1604  87.9711  88.4433
    89.0916  89.5273  89.9839  90.1948

          k = 0.0000 0.7719-0.6233 (  2340 PWs)   bands (ev):

   -87.4880 -87.4777 -87.4777 -87.4777 -54.1419 -46.4525 -46.4525 -46.4145
   -46.4062 -46.3444 -46.3433 -46.3433 -46.3096 -46.2910 -46.2910 -46.2909
   -46.2843 -18.9365 -18.9027 -18.9027  13.7133  15.3201  15.3201  15.5569
    15.9209  16.6179  17.0013  17.2348  17.2454  17.2454  17.6579  17.9019
    17.9278  17.9278  18.1791  18.1791  18.3369  18.3552  18.7907  18.8612
    18.8612  19.6119  19.8229  19.8229  21.0901  21.2095  22.8330  23.4445
    23.4445  23.9724  27.8769  28.7526  29.0550  29.0550  35.3169  35.4651
    36.1401  36.1401  37.8746  37.8746  39.6114  40.4907  40.7600  40.8235
    40.8235  41.9779  42.8401  42.8401  43.4768  43.8620  47.3501  49.0149
    49.0212  49.0212  51.6941  51.8861  51.8861  52.7138  54.1118  55.1588
    55.1588  56.2655  56.5682  57.4574  57.4574  58.0092  58.7551  58.7551
    58.8449  60.3465  60.4457  61.2944  61.4130  61.4130  62.6237  62.7338
    62.7338  64.3948  65.4030  66.2805  69.0446  69.0446  70.1308  70.7710
    70.9648  71.0410  71.0410  73.6633  73.9862  73.9862  74.2108  75.0551
    76.6710  76.6710  77.2626  78.4987  78.6482  79.3533  79.3533  80.0419
    80.9736  80.9736  81.2325  81.3638  82.1172  82.1172  82.6518  83.1995
    84.5235  84.5235  84.6800  85.4644  85.4644  86.5598  87.0829  88.4029
    88.4029  88.9935  89.8026  89.8026

          k = 0.1930 0.1930 0.6233 (  2344 PWs)   bands (ev):

   -87.4860 -87.4835 -87.4791 -87.4756 -54.1419 -46.4693 -46.4515 -46.4314
   -46.4163 -46.3645 -46.3475 -46.3423 -46.3338 -46.3113 -46.2956 -46.2785
   -46.2692 -18.9368 -18.9030 -18.9028  14.1335  14.7260  15.1590  15.7278
    16.3976  16.5447  16.8181  17.0303  17.2293  17.2992  17.4236  17.6615
    17.8220  17.9456  18.0731  18.1877  18.3292  18.5721  18.6811  18.9546
    19.1469  19.5043  19.7856  19.9945  21.0902  21.5009  22.2508  22.6549
    22.8392  25.9450  27.5908  28.7733  29.5236  32.1738  32.8137  32.8476
    34.4282  36.1368  37.8977  38.8796  39.0943  39.4729  40.7867  40.9667
    41.7778  42.9575  43.3768  44.1021  44.8836  46.0034  48.0560  48.5640
    48.7116  49.5193  50.3148  50.5429  51.2918  51.9074  52.8611  53.4408
    54.3487  55.3860  55.8215  56.6348  57.3783  57.7725  58.9784  59.3120
    59.6483  61.0473  61.2038  61.6267  62.3682  63.2331  63.5954  64.0901
    64.7920  65.9798  66.3822  66.8210  67.4351  68.0459  68.9288  69.6168
    70.5870  71.1228  72.0331  72.2707  72.9143  73.8655  74.3345  74.5214
    75.2419  76.5521  76.7790  77.2118  77.6952  78.1490  78.6037  79.5134
    79.7227  80.6244  81.1932  81.4693  82.2257  82.3629  82.8314  83.7112
    84.8026  84.9966  85.9521  86.7927  87.2824  87.6345  88.4273  88.7937
    89.1455  89.5710  90.0793  90.2970

          k = 0.1930 0.3860 0.3117 (  2358 PWs)   bands (ev):

   -87.4961 -87.4840 -87.4783 -87.4765 -54.1428 -46.4745 -46.4696 -46.4642
   -46.4358 -46.4087 -46.3920 -46.3753 -46.3527 -46.3355 -46.3158 -46.2983
   -46.2968 -18.9091 -18.9078 -18.9030  12.9583  14.6818  15.4630  15.5237
    15.9170  16.0612  16.4202  16.7943  17.1840  17.3351  17.4926  17.6392
    17.8087  17.9092  18.1089  18.1768  18.5241  18.6241  18.9057  19.0621
    19.4474  19.5405  19.7251  20.1796  21.2862  21.6676  21.7121  23.4560
    24.4404  25.8099  27.8870  29.3323  30.7672  31.5054  32.4268  33.7746
    34.6537  34.9245  35.4301  37.8164  38.3299  39.0284  39.9737  40.7441
    41.6090  42.5449  44.2335  44.5223  45.7355  46.0175  47.6643  48.4945
    48.9837  49.7224  49.9502  50.4680  51.2908  51.8442  52.7194  53.6996
    54.2589  55.4531  56.5408  57.1087  57.8470  58.3862  59.1142  59.2904
    60.5590  60.9954  61.5639  62.3714  62.8937  63.5071  63.9013  64.1334
    64.3375  65.1527  66.9665  67.9006  68.2320  69.2696  69.4275  69.5252
    70.2857  70.5688  71.7582  72.3684  72.8269  73.6246  73.6620  73.8713
    74.7290  75.4697  76.4320  76.8626  77.4542  78.1277  78.4256  78.9185
    79.1992  79.9710  80.7849  81.0045  81.5658  82.0776  82.5425  83.5395
    83.9386  84.2941  85.1245  85.4208  85.8635  86.2543  86.4004  87.4336
    88.5409  88.9287  89.4580  90.4972

          k = 0.1930 0.5789 0.0000 (  2348 PWs)   bands (ev):

   -87.4924 -87.4870 -87.4777 -87.4713 -54.1437 -46.4973 -46.4469 -46.4275
   -46.4184 -46.3979 -46.3883 -46.3540 -46.3358 -46.3333 -46.3055 -46.2774
   -46.2615 -18.9125 -18.9079 -18.8771  13.4069  13.7919  14.8975  15.3982
    15.7558  15.8681  16.2557  16.5635  16.7529  17.0221  17.1152  17.7710
    18.1662  18.4530  18.5271  18.7449  18.8435  18.8642  19.1931  19.2513
    19.5151  19.6120  19.8552  20.5800  20.9452  21.7777  22.2186  22.3416
    24.0301  25.2073  29.7500  30.7812  31.7701  32.6860  33.2171  33.9247
    34.6168  35.0096  36.3436  36.3514  37.2109  38.8185  39.8920  40.4637
    41.7702  42.1614  42.9547  43.1036  44.0666  44.9668  46.3094  46.3337
    47.2667  47.7502  48.6622  51.8963  53.2916  53.6027  54.2105  54.7399
    55.9332  56.8702  57.4925  58.1936  58.2820  59.6464  60.3622  60.7500
    61.2547  61.3936  61.9903  62.1063  62.8242  63.3799  65.1074  65.6605
    65.8898  66.2713  66.3778  67.2847  67.3162  68.2559  68.2888  68.9369
    70.6485  70.7587  71.7158  72.0880  72.4775  72.5465  72.9632  73.7824
    73.7967  74.6304  75.1105  75.5029  76.4092  76.8365  77.7196  77.9760
    78.4988  79.1795  80.5530  80.7585  81.4570  81.6423  81.8102  82.5221
    82.6781  83.9913  84.0308  84.1336  84.7774  86.5084  86.5532  87.0080
    87.8991  88.5832  89.1966  90.4971

          k = 0.1930 0.7719-0.3117 (  2349 PWs)   bands (ev):

   -87.4904 -87.4817 -87.4793 -87.4770 -54.1430 -46.4587 -46.4562 -46.4458
   -46.4227 -46.3952 -46.3816 -46.3753 -46.3502 -46.3223 -46.2900 -46.2701
   -46.2678 -18.9089 -18.9073 -18.9058  13.9503  14.8705  15.0806  15.2951
    15.7002  16.0310  16.4033  16.5716  17.0137  17.3849  17.7199  17.7256
    17.7562  17.8687  18.1116  18.2563  18.7105  18.8035  18.9093  19.3328
    19.5466  19.6239  19.7907  20.0327  21.2107  21.6906  21.8113  22.2620
    23.1823  24.3119  29.2769  30.0578  32.3444  33.5327  33.9501  34.0135
    34.4280  35.0698  36.2422  36.5599  37.9756  39.4536  39.9818  40.2103
    41.1937  42.2647  42.8760  43.6324  44.2485  44.5861  46.6433  46.9917
    49.4665  50.0571  50.8671  51.3206  51.8871  52.2958  53.3289  54.6352
    54.7066  55.3132  55.6468  57.1209  57.6393  57.8291  58.9769  60.2301
    61.3745  61.9531  62.3666  62.8223  63.2217  63.5246  64.8989  65.3495
    65.5545  65.8279  66.1202  67.1191  67.8773  68.4282  68.9592  69.7350
    70.1947  70.3010  71.2257  71.8997  72.1720  72.8172  73.7112  74.2045
    74.3453  74.9420  75.8093  76.1386  76.6971  77.4929  77.9068  78.4349
    78.8073  79.5766  80.2328  80.8456  81.3553  81.9860  82.3935  83.0866
    83.5804  83.8439  85.9560  86.4693  86.7527  87.1604  87.9711  88.4433
    89.0916  89.5273  89.9839  90.1948

          k = 0.3860 0.1930 0.9350 (  2358 PWs)   bands (ev):

   -87.4961 -87.4840 -87.4783 -87.4765 -54.1428 -46.4745 -46.4696 -46.4642
   -46.4358 -46.4087 -46.3920 -46.3753 -46.3527 -46.3355 -46.3158 -46.2983
   -46.2968 -18.9091 -18.9078 -18.9030  12.9583  14.6818  15.4630  15.5237
    15.9170  16.0612  16.4202  16.7943  17.1840  17.3351  17.4926  17.6392
    17.8087  17.9092  18.1089  18.1768  18.5241  18.6241  18.9057  19.0621
    19.4474  19.5405  19.7251  20.1796  21.2862  21.6676  21.7121  23.4560
    24.4404  25.8099  27.8870  29.3323  30.7672  31.5054  32.4268  33.7746
    34.6537  34.9245  35.4301  37.8164  38.3299  39.0284  39.9737  40.7441
    41.6090  42.5449  44.2335  44.5223  45.7355  46.0175  47.6643  48.4945
    48.9837  49.7224  49.9502  50.4680  51.2908  51.8442  52.7194  53.6996
    54.2589  55.4531  56.5408  57.1087  57.8470  58.3862  59.1142  59.2904
    60.5590  60.9954  61.5639  62.3714  62.8937  63.5071  63.9013  64.1334
    64.3375  65.1527  66.9665  67.9006  68.2320  69.2696  69.4275  69.5252
    70.2857  70.5688  71.7582  72.3684  72.8269  73.6246  73.6620  73.8713
    74.7290  75.4697  76.4320  76.8626  77.4542  78.1277  78.4256  78.9185
    79.1992  79.9710  80.7849  81.0045  81.5658  82.0776  82.5425  83.5395
    83.9386  84.2941  85.1245  85.4208  85.8635  86.2543  86.4004  87.4336
    88.5409  88.9287  89.4580  90.4972

          k = 0.3860 0.3860 0.6233 (  2356 PWs)   bands (ev):

   -87.4855 -87.4855 -87.4852 -87.4769 -54.1420 -46.4885 -46.4814 -46.4814
   -46.4734 -46.3745 -46.3590 -46.3590 -46.3348 -46.3135 -46.3135 -46.2998
   -46.2901 -18.9364 -18.9040 -18.9040  14.7467  14.7467  14.9546  14.9699
    16.0104  17.0353  17.0353  17.2792  17.4871  17.5450  17.5450  17.5752
    17.6231  17.6231  17.7048  18.0475  18.0475  18.1353  18.3610  19.1272
    19.4839  19.4839  19.7579  19.7943  21.5058  21.9113  21.9113  22.0532
    22.4516  28.1257  28.1257  28.7453  30.7810  30.9521  31.8308  31.8309
    32.0914  37.4135  37.9793  37.9793  38.7382  40.7284  40.7284  41.3066
    41.4966  44.1372  44.1372  44.2118  45.6162  46.6383  46.6383  47.0952
    49.2156  49.2156  50.0050  51.8353  51.8353  51.9244  52.6992  53.3957
    53.7828  55.0670  55.0670  56.6368  57.2163  57.3926  57.3926  57.8304
    59.3783  61.6379  61.7914  61.7914  63.7437  64.1570  64.3485  64.3485
    64.8260  66.7327  66.7327  67.5983  67.8321  68.3252  68.3252  69.2466
    70.6381  72.0279  72.7625  72.7625  73.1208  73.7207  73.8125  74.3459
    74.3459  75.4203  76.3240  76.3240  77.6458  77.8509  78.3164  78.3164
    78.6086  80.2715  80.2715  80.3190  80.3686  82.6954  83.0138  83.0138
    83.1100  84.5319  87.0041  87.0041  88.3877  88.6426  88.6426  88.9689
    90.2639  90.2639  90.6753  90.7818

          k = 0.3860 0.5789 0.3117 (  2358 PWs)   bands (ev):

   -87.4946 -87.4850 -87.4784 -87.4767 -54.1428 -46.4810 -46.4720 -46.4478
   -46.4305 -46.3899 -46.3835 -46.3770 -46.3720 -46.3411 -46.3254 -46.3063
   -46.2923 -18.9100 -18.9063 -18.9036  13.0164  14.4215  15.3908  15.6971
    15.9640  16.2228  16.4108  16.7005  17.1903  17.4574  17.6187  17.6817
    17.8603  17.9297  18.0004  18.2601  18.4503  18.6163  18.6974  18.8200
    19.5489  19.5845  19.6167  20.3991  21.1979  21.6609  21.7098  23.4698
    24.4212  25.9704  27.7296  29.0012  31.2455  31.9843  32.2725  33.1851
    34.2925  35.0978  36.2505  37.3460  38.0702  38.5332  40.0518  41.3693
    42.2788  43.0465  43.9565  44.3006  45.2379  45.6363  46.9647  48.5244
    48.8331  49.4600  49.8608  51.2689  51.7298  53.1247  53.4188  53.8568
    54.3918  55.0223  55.8741  56.2626  57.2619  57.8773  58.5813  60.0713
    60.4635  60.8958  61.3174  62.0744  63.1199  63.5181  64.4441  64.5372
    64.8482  65.7324  67.1339  67.7730  68.0748  68.4352  69.0405  70.3036
    70.7050  71.1859  71.6654  72.2320  72.4323  73.3089  73.3832  74.3080
    74.5843  75.3582  75.9709  76.4682  76.9194  77.5063  78.5524  79.1391
    79.7766  80.4767  80.9795  81.4443  81.6858  82.1636  82.4899  83.4444
    83.7226  84.6109  84.8216  85.4130  85.6791  86.2884  86.7266  87.0922
    88.0251  88.5271  89.7259  90.2374

          k = 0.3860 0.7719 0.0000 (  2362 PWs)   bands (ev):

   -87.4984 -87.4850 -87.4779 -87.4765 -54.1436 -46.5249 -46.4732 -46.4584
   -46.4454 -46.4233 -46.4073 -46.3630 -46.3545 -46.3238 -46.3165 -46.3123
   -46.2868 -18.9093 -18.9092 -18.8773  11.9637  14.8002  15.2627  15.5276
    15.8816  16.0372  16.1422  16.1530  17.0056  17.2437  17.2562  17.9575
    18.1582  18.2423  18.3012  18.4032  18.5496  18.8539  19.0720  19.1048
    19.1807  19.6634  19.8164  20.8389  21.2155  21.6156  21.8902  22.6989
    25.2139  26.6249  29.2236  30.1221  31.2132  31.4553  31.7280  32.8669
    34.6083  34.6816  35.9559  36.1770  36.7954  39.6630  40.0708  41.5636
    42.4485  42.5576  42.8589  44.1577  44.1733  45.0279  45.3774  46.8862
    48.7741  48.8564  50.4804  51.7752  52.0055  53.8349  53.9489  54.8445
    55.7071  55.8187  56.1555  57.9622  59.0056  59.0614  59.8588  60.5973
    60.9046  60.9829  61.7167  62.2139  62.3791  62.6987  63.4291  64.6005
    64.7318  65.5592  65.8554  66.6293  68.1868  68.7152  68.7908  69.7996
    70.5816  71.2357  72.2335  72.2835  72.9210  73.6819  74.1377  74.4409
    75.3173  75.4009  75.8655  76.0268  76.5445  77.9108  78.4682  78.8952
    79.5289  79.5794  79.8700  79.9945  80.7960  81.2974  81.9738  82.0693
    82.6602  83.5297  84.0934  85.0216  85.2254  86.1378  86.2016  86.7037
    87.7009  88.3697  88.6493  89.7278

          k =-0.3860 0.3860 0.0000 (  2346 PWs)   bands (ev):

   -87.4947 -87.4863 -87.4734 -87.4728 -54.1435 -46.4650 -46.4279 -46.4175
   -46.4041 -46.3999 -46.3978 -46.3868 -46.3650 -46.3075 -46.2990 -46.2767
   -46.2685 -18.9139 -18.9033 -18.8774  12.8158  13.4638  14.8074  15.6260
    15.8427  16.1894  16.3060  16.7125  17.0160  17.1003  17.7106  17.7361
    17.9065  18.1734  18.2701  18.4598  18.7026  18.7450  18.8871  19.1839
    19.4803  19.7539  20.6743  20.9200  21.0693  21.8403  22.2659  22.3338
    25.6360  27.6320  28.3319  29.4164  29.6984  30.9838  32.8973  33.1353
    33.7781  35.0916  35.9281  37.3505  37.6622  38.5043  38.7937  40.8586
    42.9289  43.5914  43.5926  44.3413  44.4572  45.8759  46.1066  47.5334
    48.9351  49.2762  49.6885  51.1241  51.6633  52.3784  52.9095  53.5932
    54.6182  55.9292  56.6113  58.0820  59.0367  59.2284  59.6238  59.8890
    60.0696  61.7654  62.1155  62.7098  63.5378  63.8153  65.5639  65.8565
    66.3145  66.7288  67.2213  67.3622  68.0100  68.2720  68.4950  69.2323
    69.8467  70.5244  71.2409  71.4026  71.6373  72.9792  73.3525  73.5415
    74.1873  74.9647  75.0931  75.5806  75.5939  76.4486  76.6267  77.9130
    79.9325  80.1686  80.8245  81.0758  82.6172  83.1203  83.4737  83.6741
    83.7641  84.5447  84.7109  85.1160  85.6130  85.6426  86.2051  87.0538
    87.0610  88.7560  89.0975  89.6363

          k =-0.3860 0.5789-0.3117 (  2358 PWs)   bands (ev):

   -87.4961 -87.4840 -87.4783 -87.4765 -54.1428 -46.4745 -46.4696 -46.4642
   -46.4358 -46.4087 -46.3920 -46.3753 -46.3527 -46.3355 -46.3158 -46.2983
   -46.2968 -18.9091 -18.9078 -18.9030  12.9583  14.6818  15.4630  15.5237
    15.9170  16.0612  16.4202  16.7943  17.1840  17.3351  17.4926  17.6392
    17.8087  17.9092  18.1089  18.1768  18.5241  18.6241  18.9057  19.0621
    19.4474  19.5405  19.7251  20.1796  21.2862  21.6676  21.7121  23.4560
    24.4404  25.8099  27.8870  29.3323  30.7672  31.5054  32.4268  33.7746
    34.6537  34.9245  35.4301  37.8164  38.3299  39.0284  39.9737  40.7441
    41.6090  42.5449  44.2335  44.5223  45.7355  46.0175  47.6643  48.4945
    48.9837  49.7224  49.9502  50.4680  51.2908  51.8442  52.7194  53.6996
    54.2589  55.4531  56.5408  57.1087  57.8470  58.3862  59.1142  59.2904
    60.5590  60.9954  61.5639  62.3714  62.8937  63.5071  63.9013  64.1334
    64.3375  65.1527  66.9665  67.9006  68.2320  69.2696  69.4275  69.5252
    70.2857  70.5688  71.7582  72.3684  72.8269  73.6246  73.6620  73.8713
    74.7290  75.4697  76.4320  76.8626  77.4542  78.1277  78.4256  78.9185
    79.1992  79.9710  80.7849  81.0045  81.5658  82.0776  82.5425  83.5395
    83.9386  84.2941  85.1245  85.4208  85.8635  86.2543  86.4004  87.4336
    88.5409  88.9287  89.4580  90.4972

          k =-0.3860 0.7719-0.6233 (  2348 PWs)   bands (ev):

   -87.4859 -87.4850 -87.4802 -87.4769 -54.1420 -46.4649 -46.4590 -46.4503
   -46.4384 -46.3889 -46.3590 -46.3489 -46.3441 -46.3332 -46.2983 -46.2842
   -46.2511 -18.9369 -18.9031 -18.9029  14.2381  14.7081  14.9388  15.9967
    16.5299  16.5913  16.8656  16.8817  16.9950  17.2739  17.3584  17.4889
    17.6321  17.6876  17.8461  18.1721  18.6276  18.6451  18.9146  19.2110
    19.4042  19.4475  19.8460  20.0523  20.9597  21.3441  21.6709  22.5158
    23.2761  25.6296  27.7937  28.2601  30.8228  31.4601  32.8042  33.9955
    34.7525  35.0569  37.0207  38.1604  38.9389  38.9865  40.3517  41.7623
    42.5456  43.3811  44.8170  44.8361  45.9897  46.0508  47.1840  47.2000
    48.0654  49.2228  49.4014  51.0018  51.3268  51.7277  52.6972  53.7670
    53.8317  55.3977  56.2610  56.3324  56.8899  57.9589  58.2779  59.8036
    59.9970  61.4054  61.5906  62.0600  63.1094  63.3515  63.9582  64.4164
    64.4321  65.4247  66.5869  66.8121  68.2468  68.9552  69.2921  69.4169
    70.3394  70.4001  71.1637  71.6161  72.5049  72.9415  73.4471  73.9674
    74.3650  74.7953  75.9123  77.6162  78.2909  79.5355  80.3068  80.3102
    81.0159  81.1952  81.7291  82.4236  82.8713  82.9436  83.4600  83.9733
    84.6480  85.1025  85.3669  85.6992  86.2422  86.8375  87.5312  87.8237
    88.3584  89.6476  89.9579  90.5307

          k =-0.3860 0.9649-0.9350 (  2358 PWs)   bands (ev):

   -87.4961 -87.4840 -87.4783 -87.4765 -54.1428 -46.4745 -46.4696 -46.4642
   -46.4358 -46.4087 -46.3920 -46.3753 -46.3527 -46.3355 -46.3158 -46.2983
   -46.2968 -18.9091 -18.9078 -18.9030  12.9583  14.6818  15.4630  15.5237
    15.9170  16.0612  16.4202  16.7943  17.1840  17.3351  17.4926  17.6392
    17.8087  17.9092  18.1089  18.1768  18.5241  18.6241  18.9057  19.0621
    19.4474  19.5405  19.7251  20.1796  21.2862  21.6676  21.7121  23.4560
    24.4404  25.8099  27.8870  29.3323  30.7672  31.5054  32.4268  33.7746
    34.6537  34.9245  35.4301  37.8164  38.3299  39.0284  39.9737  40.7441
    41.6090  42.5449  44.2335  44.5223  45.7355  46.0175  47.6643  48.4945
    48.9837  49.7224  49.9502  50.4680  51.2908  51.8442  52.7194  53.6996
    54.2589  55.4531  56.5408  57.1087  57.8470  58.3862  59.1142  59.2904
    60.5590  60.9954  61.5639  62.3714  62.8937  63.5071  63.9013  64.1334
    64.3375  65.1527  66.9665  67.9006  68.2320  69.2696  69.4275  69.5252
    70.2857  70.5688  71.7582  72.3684  72.8269  73.6246  73.6620  73.8713
    74.7290  75.4697  76.4320  76.8626  77.4542  78.1277  78.4256  78.9185
    79.1992  79.9710  80.7849  81.0045  81.5658  82.0776  82.5425  83.5395
    83.9386  84.2941  85.1245  85.4208  85.8635  86.2543  86.4004  87.4336
    88.5409  88.9287  89.4580  90.4972

          k =-0.1930 0.3860 0.3117 (  2358 PWs)   bands (ev):

   -87.4947 -87.4850 -87.4784 -87.4767 -54.1428 -46.4810 -46.4720 -46.4478
   -46.4305 -46.3899 -46.3835 -46.3770 -46.3720 -46.3411 -46.3254 -46.3063
   -46.2923 -18.9100 -18.9063 -18.9036  13.0164  14.4215  15.3908  15.6971
    15.9640  16.2228  16.4108  16.7005  17.1903  17.4574  17.6187  17.6817
    17.8603  17.9297  18.0004  18.2601  18.4503  18.6163  18.6974  18.8200
    19.5489  19.5845  19.6167  20.3991  21.1979  21.6609  21.7098  23.4698
    24.4212  25.9704  27.7296  29.0012  31.2455  31.9843  32.2725  33.1851
    34.2925  35.0978  36.2505  37.3460  38.0702  38.5332  40.0518  41.3693
    42.2788  43.0465  43.9565  44.3006  45.2379  45.6363  46.9647  48.5244
    48.8331  49.4600  49.8608  51.2689  51.7298  53.1247  53.4188  53.8568
    54.3918  55.0223  55.8741  56.2626  57.2619  57.8773  58.5813  60.0713
    60.4635  60.8958  61.3174  62.0744  63.1199  63.5181  64.4441  64.5372
    64.8482  65.7324  67.1339  67.7730  68.0748  68.4352  69.0405  70.3036
    70.7050  71.1859  71.6654  72.2320  72.4323  73.3089  73.3832  74.3080
    74.5843  75.3582  75.9709  76.4682  76.9194  77.5063  78.5524  79.1391
    79.7766  80.4767  80.9795  81.4443  81.6858  82.1636  82.4899  83.4444
    83.7226  84.6109  84.8216  85.4130  85.6791  86.2884  86.7266  87.0922
    88.0251  88.5271  89.7259  90.2374

          k =-0.1930 0.5789 0.0000 (  2348 PWs)   bands (ev):

   -87.4924 -87.4870 -87.4777 -87.4713 -54.1437 -46.4973 -46.4469 -46.4275
   -46.4184 -46.3979 -46.3883 -46.3540 -46.3358 -46.3333 -46.3055 -46.2774
   -46.2615 -18.9125 -18.9079 -18.8771  13.4069  13.7919  14.8975  15.3982
    15.7558  15.8681  16.2557  16.5635  16.7529  17.0221  17.1152  17.7710
    18.1662  18.4530  18.5271  18.7449  18.8435  18.8642  19.1931  19.2513
    19.5151  19.6120  19.8552  20.5800  20.9452  21.7777  22.2186  22.3416
    24.0301  25.2073  29.7500  30.7812  31.7701  32.6860  33.2171  33.9247
    34.6168  35.0096  36.3436  36.3514  37.2109  38.8185  39.8920  40.4637
    41.7702  42.1614  42.9547  43.1036  44.0666  44.9668  46.3094  46.3337
    47.2667  47.7502  48.6622  51.8963  53.2916  53.6027  54.2105  54.7399
    55.9332  56.8702  57.4925  58.1936  58.2820  59.6464  60.3622  60.7500
    61.2547  61.3936  61.9903  62.1063  62.8242  63.3799  65.1074  65.6605
    65.8898  66.2713  66.3778  67.2847  67.3162  68.2559  68.2888  68.9369
    70.6485  70.7587  71.7158  72.0880  72.4775  72.5465  72.9632  73.7824
    73.7967  74.6304  75.1105  75.5029  76.4092  76.8365  77.7196  77.9760
    78.4988  79.1795  80.5530  80.7585  81.4570  81.6423  81.8102  82.5221
    82.6781  83.9913  84.0308  84.1336  84.7774  86.5084  86.5532  87.0080
    87.8991  88.5832  89.1966  90.4971

          k =-0.1930 0.7719-0.3117 (  2349 PWs)   bands (ev):

   -87.4904 -87.4817 -87.4793 -87.4770 -54.1430 -46.4587 -46.4562 -46.4458
   -46.4227 -46.3952 -46.3816 -46.3753 -46.3502 -46.3223 -46.2900 -46.2701
   -46.2678 -18.9089 -18.9073 -18.9058  13.9503  14.8705  15.0806  15.2951
    15.7002  16.0310  16.4033  16.5716  17.0137  17.3849  17.7199  17.7256
    17.7562  17.8687  18.1116  18.2563  18.7105  18.8035  18.9093  19.3328
    19.5466  19.6239  19.7907  20.0327  21.2107  21.6906  21.8113  22.2620
    23.1823  24.3119  29.2769  30.0578  32.3444  33.5327  33.9501  34.0135
    34.4280  35.0698  36.2422  36.5599  37.9756  39.4536  39.9818  40.2103
    41.1937  42.2647  42.8760  43.6324  44.2485  44.5861  46.6433  46.9917
    49.4665  50.0571  50.8671  51.3206  51.8871  52.2958  53.3289  54.6352
    54.7066  55.3132  55.6468  57.1209  57.6393  57.8291  58.9769  60.2301
    61.3745  61.9531  62.3666  62.8223  63.2217  63.5246  64.8989  65.3495
    65.5545  65.8279  66.1202  67.1191  67.8773  68.4282  68.9592  69.7350
    70.1947  70.3010  71.2257  71.8997  72.1720  72.8172  73.7112  74.2045
    74.3453  74.9420  75.8093  76.1386  76.6971  77.4929  77.9068  78.4349
    78.8073  79.5766  80.2328  80.8456  81.3553  81.9860  82.3935  83.0866
    83.5804  83.8439  85.9560  86.4693  86.7527  87.1604  87.9711  88.4433
    89.0916  89.5273  89.9839  90.1948

          k =-0.1930 0.9649-0.6233 (  2344 PWs)   bands (ev):

   -87.4860 -87.4835 -87.4791 -87.4756 -54.1419 -46.4693 -46.4515 -46.4314
   -46.4163 -46.3645 -46.3475 -46.3423 -46.3338 -46.3113 -46.2956 -46.2785
   -46.2692 -18.9368 -18.9030 -18.9028  14.1335  14.7260  15.1590  15.7278
    16.3976  16.5447  16.8181  17.0303  17.2293  17.2992  17.4236  17.6615
    17.8220  17.9456  18.0731  18.1877  18.3292  18.5721  18.6811  18.9546
    19.1469  19.5043  19.7856  19.9945  21.0902  21.5009  22.2508  22.6549
    22.8392  25.9450  27.5908  28.7733  29.5236  32.1738  32.8137  32.8476
    34.4282  36.1368  37.8977  38.8796  39.0943  39.4729  40.7867  40.9667
    41.7778  42.9575  43.3768  44.1021  44.8836  46.0034  48.0560  48.5640
    48.7116  49.5193  50.3148  50.5429  51.2918  51.9074  52.8611  53.4408
    54.3487  55.3860  55.8215  56.6348  57.3783  57.7725  58.9784  59.3120
    59.6483  61.0473  61.2038  61.6267  62.3682  63.2331  63.5954  64.0901
    64.7920  65.9798  66.3822  66.8210  67.4351  68.0459  68.9288  69.6168
    70.5870  71.1228  72.0331  72.2707  72.9143  73.8655  74.3345  74.5214
    75.2419  76.5521  76.7790  77.2118  77.6952  78.1490  78.6037  79.5134
    79.7227  80.6244  81.1932  81.4693  82.2257  82.3629  82.8314  83.7112
    84.8026  84.9966  85.9521  86.7927  87.2824  87.6345  88.4273  88.7937
    89.1455  89.5710  90.0793  90.2970

          k = 0.0000 0.3860 0.6233 (  2348 PWs)   bands (ev):

   -87.4859 -87.4850 -87.4802 -87.4769 -54.1420 -46.4649 -46.4590 -46.4503
   -46.4384 -46.3889 -46.3590 -46.3489 -46.3441 -46.3332 -46.2983 -46.2842
   -46.2511 -18.9369 -18.9031 -18.9029  14.2381  14.7081  14.9388  15.9967
    16.5299  16.5913  16.8656  16.8817  16.9950  17.2739  17.3584  17.4889
    17.6321  17.6876  17.8461  18.1721  18.6276  18.6451  18.9146  19.2110
    19.4042  19.4475  19.8460  20.0523  20.9597  21.3441  21.6709  22.5158
    23.2761  25.6297  27.7937  28.2601  30.8228  31.4601  32.8042  33.9955
    34.7525  35.0569  37.0207  38.1604  38.9389  38.9865  40.3517  41.7623
    42.5456  43.3811  44.8170  44.8361  45.9897  46.0508  47.1840  47.2000
    48.0654  49.2228  49.4014  51.0018  51.3268  51.7277  52.6972  53.7670
    53.8317  55.3977  56.2610  56.3324  56.8899  57.9589  58.2779  59.8036
    59.9970  61.4054  61.5906  62.0600  63.1094  63.3515  63.9582  64.4164
    64.4321  65.4247  66.5869  66.8121  68.2468  68.9552  69.2921  69.4169
    70.3394  70.4001  71.1637  71.6161  72.5049  72.9415  73.4471  73.9674
    74.3650  74.7953  75.9123  77.6162  78.2909  79.5355  80.3068  80.3102
    81.0159  81.1952  81.7291  82.4236  82.8713  82.9436  83.4600  83.9733
    84.6480  85.1025  85.3669  85.6992  86.2422  86.8375  87.5312  87.8237
    88.3584  89.6476  89.9579  90.5307

          k = 0.0000 0.5789 0.3117 (  2349 PWs)   bands (ev):

   -87.4904 -87.4817 -87.4793 -87.4770 -54.1430 -46.4587 -46.4562 -46.4458
   -46.4227 -46.3952 -46.3816 -46.3753 -46.3502 -46.3223 -46.2900 -46.2701
   -46.2678 -18.9089 -18.9073 -18.9058  13.9503  14.8705  15.0806  15.2951
    15.7002  16.0310  16.4033  16.5716  17.0137  17.3849  17.7199  17.7256
    17.7562  17.8687  18.1116  18.2563  18.7105  18.8035  18.9093  19.3328
    19.5466  19.6239  19.7907  20.0327  21.2107  21.6906  21.8113  22.2620
    23.1823  24.3119  29.2769  30.0578  32.3444  33.5327  33.9501  34.0135
    34.4280  35.0698  36.2422  36.5599  37.9756  39.4536  39.9818  40.2103
    41.1937  42.2647  42.8760  43.6324  44.2485  44.5861  46.6433  46.9917
    49.4665  50.0571  50.8671  51.3206  51.8871  52.2958  53.3289  54.6352
    54.7066  55.3132  55.6468  57.1209  57.6393  57.8291  58.9769  60.2301
    61.3745  61.9531  62.3666  62.8223  63.2217  63.5246  64.8989  65.3495
    65.5545  65.8279  66.1202  67.1191  67.8773  68.4282  68.9592  69.7350
    70.1947  70.3010  71.2257  71.8997  72.1720  72.8172  73.7112  74.2045
    74.3453  74.9420  75.8093  76.1386  76.6971  77.4929  77.9068  78.4349
    78.8073  79.5766  80.2328  80.8456  81.3553  81.9860  82.3935  83.0866
    83.5804  83.8439  85.9560  86.4693  86.7527  87.1604  87.9711  88.4433
    89.0916  89.5273  89.9839  90.1948

          k = 0.0000 0.7719 0.0000 (  2368 PWs)   bands (ev):

   -87.4885 -87.4885 -87.4884 -87.4771 -54.1442 -46.5023 -46.4750 -46.4465
   -46.4465 -46.4418 -46.4344 -46.4319 -46.4319 -46.3252 -46.3072 -46.3072
   -46.2851 -18.9119 -18.9119 -18.8785  14.2034  14.3215  15.0519  15.1476
    15.1476  15.6362  16.2439  16.2439  16.4828  16.6550  17.6821  17.6821
    17.9662  17.9733  18.7367  18.8590  18.8596  18.8596  19.1406  19.2812
    19.4042  19.4042  19.8889  19.8889  21.8756  22.0089  22.0630  22.0630
    22.7287  23.1702  30.7952  32.5006  32.5006  33.3665  34.6228  34.6228
    35.3790  36.2909  36.2909  37.0964  37.4575  38.0632  38.1921  38.1921
    40.1563  40.6237  42.8214  43.2742  43.8131  45.2661  46.8074  46.8074
    47.0074  47.0075  47.4423  51.6606  51.6606  53.2240  54.0526  54.1917
    56.6526  57.8934  57.8934  59.4687  60.0033  60.0033  61.0842  61.3830
    61.6448  61.6448  63.4097  63.4097  63.4569  63.8612  65.3387  65.7169
    66.1476  66.1476  67.2814  67.3712  67.3712  67.7276  67.7839  67.8609
    67.8609  69.1019  71.8435  72.0328  72.0328  72.1207  72.5940  72.5940
    73.3239  73.3640  74.8142  75.8053  76.1166  76.1166  77.1902  77.3908
    77.3908  78.8746  79.7847  79.8052  80.6940  80.6940  81.8301  81.8301
    82.9936  86.0007  86.0007  86.4531  86.5711  87.5067  88.5044  88.7839
    88.8398  88.8398  89.6925  90.7874

          k = 0.0000 0.9649-0.3117 (  2349 PWs)   bands (ev):

   -87.4904 -87.4817 -87.4793 -87.4770 -54.1430 -46.4587 -46.4562 -46.4458
   -46.4227 -46.3952 -46.3816 -46.3753 -46.3502 -46.3223 -46.2900 -46.2701
   -46.2678 -18.9089 -18.9073 -18.9058  13.9503  14.8705  15.0806  15.2951
    15.7002  16.0310  16.4033  16.5716  17.0137  17.3849  17.7199  17.7256
    17.7562  17.8687  18.1116  18.2563  18.7105  18.8035  18.9093  19.3328
    19.5466  19.6239  19.7907  20.0327  21.2107  21.6906  21.8113  22.2620
    23.1823  24.3119  29.2769  30.0578  32.3444  33.5327  33.9501  34.0135
    34.4280  35.0698  36.2422  36.5599  37.9756  39.4536  39.9818  40.2103
    41.1937  42.2647  42.8760  43.6324  44.2485  44.5861  46.6433  46.9917
    49.4665  50.0571  50.8671  51.3206  51.8871  52.2958  53.3289  54.6352
    54.7066  55.3132  55.6468  57.1209  57.6393  57.8291  58.9769  60.2301
    61.3745  61.9531  62.3666  62.8223  63.2217  63.5246  64.8989  65.3495
    65.5545  65.8279  66.1202  67.1191  67.8773  68.4282  68.9592  69.7350
    70.1947  70.3010  71.2257  71.8997  72.1720  72.8172  73.7112  74.2045
    74.3453  74.9420  75.8093  76.1386  76.6971  77.4929  77.9068  78.4349
    78.8073  79.5766  80.2328  80.8456  81.3553  81.9860  82.3935  83.0866
    83.5804  83.8439  85.9560  86.4693  86.7527  87.1604  87.9711  88.4433
    89.0916  89.5273  89.9839  90.1948

          k = 0.1930 0.3860 0.9350 (  2358 PWs)   bands (ev):

   -87.4947 -87.4850 -87.4784 -87.4767 -54.1428 -46.4810 -46.4720 -46.4478
   -46.4305 -46.3899 -46.3835 -46.3770 -46.3720 -46.3411 -46.3254 -46.3063
   -46.2923 -18.9100 -18.9063 -18.9036  13.0164  14.4215  15.3908  15.6971
    15.9640  16.2228  16.4108  16.7005  17.1903  17.4574  17.6187  17.6817
    17.8603  17.9297  18.0004  18.2601  18.4503  18.6163  18.6974  18.8200
    19.5489  19.5845  19.6167  20.3991  21.1979  21.6609  21.7098  23.4698
    24.4212  25.9704  27.7296  29.0012  31.2455  31.9843  32.2725  33.1851
    34.2925  35.0978  36.2505  37.3460  38.0702  38.5332  40.0518  41.3693
    42.2788  43.0465  43.9565  44.3006  45.2379  45.6363  46.9647  48.5244
    48.8331  49.4600  49.8608  51.2689  51.7298  53.1247  53.4188  53.8568
    54.3918  55.0223  55.8741  56.2626  57.2619  57.8773  58.5813  60.0713
    60.4635  60.8958  61.3174  62.0744  63.1199  63.5181  64.4441  64.5372
    64.8482  65.7324  67.1339  67.7730  68.0748  68.4352  69.0405  70.3036
    70.7050  71.1859  71.6654  72.2320  72.4323  73.3089  73.3832  74.3080
    74.5843  75.3582  75.9709  76.4682  76.9194  77.5063  78.5524  79.1391
    79.7766  80.4767  80.9795  81.4443  81.6858  82.1636  82.4899  83.4444
    83.7226  84.6109  84.8216  85.4130  85.6791  86.2884  86.7266  87.0922
    88.0251  88.5271  89.7259  90.2374

          k = 0.1930 0.5789 0.6233 (  2344 PWs)   bands (ev):

   -87.4860 -87.4835 -87.4791 -87.4756 -54.1419 -46.4693 -46.4515 -46.4314
   -46.4163 -46.3645 -46.3475 -46.3423 -46.3338 -46.3113 -46.2956 -46.2785
   -46.2692 -18.9368 -18.9030 -18.9028  14.1335  14.7260  15.1590  15.7278
    16.3976  16.5447  16.8181  17.0303  17.2293  17.2992  17.4236  17.6615
    17.8220  17.9456  18.0731  18.1877  18.3292  18.5721  18.6811  18.9546
    19.1469  19.5043  19.7856  19.9945  21.0902  21.5009  22.2508  22.6549
    22.8392  25.9450  27.5908  28.7733  29.5236  32.1738  32.8137  32.8476
    34.4282  36.1368  37.8977  38.8796  39.0943  39.4729  40.7867  40.9667
    41.7778  42.9575  43.3768  44.1021  44.8836  46.0034  48.0560  48.5640
    48.7116  49.5193  50.3148  50.5429  51.2918  51.9074  52.8611  53.4408
    54.3487  55.3860  55.8215  56.6348  57.3783  57.7725  58.9784  59.3120
    59.6483  61.0473  61.2038  61.6267  62.3682  63.2331  63.5954  64.0901
    64.7920  65.9798  66.3822  66.8210  67.4351  68.0459  68.9288  69.6168
    70.5870  71.1228  72.0331  72.2707  72.9143  73.8655  74.3345  74.5214
    75.2419  76.5521  76.7790  77.2118  77.6952  78.1490  78.6037  79.5134
    79.7227  80.6244  81.1932  81.4693  82.2257  82.3629  82.8314  83.7112
    84.8026  84.9966  85.9521  86.7927  87.2824  87.6345  88.4273  88.7937
    89.1455  89.5710  90.0793  90.2970

          k = 0.1930 0.7719 0.3117 (  2349 PWs)   bands (ev):

   -87.4904 -87.4817 -87.4793 -87.4770 -54.1430 -46.4587 -46.4562 -46.4458
   -46.4227 -46.3952 -46.3816 -46.3753 -46.3502 -46.3223 -46.2900 -46.2701
   -46.2678 -18.9089 -18.9073 -18.9058  13.9503  14.8705  15.0806  15.2951
    15.7002  16.0310  16.4033  16.5716  17.0137  17.3849  17.7199  17.7256
    17.7562  17.8687  18.1116  18.2563  18.7105  18.8035  18.9093  19.3328
    19.5466  19.6239  19.7907  20.0327  21.2107  21.6906  21.8113  22.2620
    23.1823  24.3119  29.2769  30.0578  32.3444  33.5327  33.9501  34.0135
    34.4280  35.0698  36.2422  36.5599  37.9756  39.4536  39.9818  40.2103
    41.1937  42.2647  42.8760  43.6324  44.2485  44.5861  46.6433  46.9917
    49.4665  50.0571  50.8671  51.3206  51.8871  52.2958  53.3289  54.6352
    54.7066  55.3132  55.6468  57.1209  57.6393  57.8291  58.9769  60.2301
    61.3745  61.9531  62.3666  62.8223  63.2217  63.5246  64.8989  65.3495
    65.5545  65.8279  66.1202  67.1191  67.8773  68.4282  68.9592  69.7350
    70.1947  70.3010  71.2257  71.8997  72.1720  72.8172  73.7112  74.2045
    74.3453  74.9420  75.8093  76.1386  76.6971  77.4929  77.9068  78.4349
    78.8073  79.5766  80.2328  80.8456  81.3553  81.9860  82.3935  83.0866
    83.5804  83.8439  85.9560  86.4693  86.7527  87.1604  87.9711  88.4433
    89.0916  89.5273  89.9839  90.1948

          k = 0.1930 0.9649 0.0000 (  2348 PWs)   bands (ev):

   -87.4924 -87.4870 -87.4777 -87.4713 -54.1437 -46.4973 -46.4469 -46.4275
   -46.4184 -46.3979 -46.3883 -46.3540 -46.3358 -46.3333 -46.3055 -46.2774
   -46.2615 -18.9125 -18.9079 -18.8771  13.4069  13.7919  14.8975  15.3982
    15.7558  15.8681  16.2557  16.5635  16.7529  17.0221  17.1152  17.7710
    18.1662  18.4530  18.5271  18.7449  18.8435  18.8642  19.1931  19.2513
    19.5151  19.6120  19.8552  20.5800  20.9452  21.7777  22.2186  22.3416
    24.0301  25.2073  29.7500  30.7812  31.7701  32.6860  33.2171  33.9247
    34.6168  35.0096  36.3436  36.3514  37.2109  38.8185  39.8920  40.4637
    41.7702  42.1614  42.9547  43.1036  44.0666  44.9668  46.3094  46.3337
    47.2667  47.7502  48.6622  51.8963  53.2916  53.6027  54.2105  54.7399
    55.9332  56.8702  57.4925  58.1936  58.2820  59.6464  60.3622  60.7500
    61.2547  61.3936  61.9903  62.1063  62.8242  63.3799  65.1074  65.6605
    65.8898  66.2713  66.3778  67.2847  67.3162  68.2559  68.2888  68.9369
    70.6485  70.7587  71.7158  72.0880  72.4775  72.5465  72.9632  73.7824
    73.7967  74.6304  75.1105  75.5029  76.4092  76.8365  77.7196  77.9760
    78.4988  79.1795  80.5530  80.7585  81.4570  81.6423  81.8102  82.5221
    82.6781  83.9913  84.0308  84.1336  84.7774  86.5084  86.5532  87.0080
    87.8991  88.5832  89.1966  90.4971

          k =-0.5789 0.5789 0.0000 (  2371 PWs)   bands (ev):

   -87.5050 -87.4837 -87.4791 -87.4760 -54.1433 -46.5269 -46.4966 -46.4630
   -46.4440 -46.4317 -46.4256 -46.3994 -46.3603 -46.3527 -46.3413 -46.3257
   -46.2755 -18.9105 -18.9046 -18.8781  11.3287  15.0821  15.1108  15.8423
    15.9308  16.2894  16.5479  16.5932  16.9108  17.1379  17.4285  17.4288
    17.6470  17.8406  17.8665  18.5621  18.6922  18.7796  18.9399  19.1273
    19.1623  19.5514  20.0295  20.9496  21.2736  21.8932  21.9271  23.5422
    25.3998  28.7101  28.8465  29.5340  29.8322  30.9366  31.5694  32.0779
    32.8905  33.3969  35.5931  35.9917  38.1446  38.6448  40.2745  41.4873
    42.5653  42.7638  44.9322  45.0878  45.4223  45.5360  46.6520  47.7294
    48.6563  50.7835  51.3123  51.6355  52.0753  52.3935  52.7422  53.0961
    54.9366  56.0076  56.2350  56.5218  56.9285  57.5394  57.9875  59.7654
    61.2699  61.7220  61.8343  62.2484  63.3911  64.2915  64.5099  65.0257
    65.6128  66.0092  66.6669  66.8735  67.4934  68.2552  69.4834  69.6582
    69.9311  70.5242  70.9037  71.3083  71.5503  73.2103  73.5574  73.6601
    75.5969  75.7191  76.2531  76.9554  77.3325  77.8950  78.2915  79.7488
    80.3071  80.5385  80.6243  80.6619  82.1452  82.7652  83.0562  83.3494
    84.0018  84.6255  85.4097  85.6093  86.1213  86.3150  86.4606  87.4169
    87.7654  87.7809  88.7466  88.9169

          k =-0.5789 0.7719-0.3117 (  2365 PWs)   bands (ev):

   -87.5040 -87.4808 -87.4777 -87.4770 -54.1425 -46.5073 -46.4854 -46.4773
   -46.4509 -46.4274 -46.3892 -46.3842 -46.3571 -46.3400 -46.3296 -46.3055
   -46.2840 -18.9085 -18.9046 -18.9039  11.8519  15.4082  15.5770  15.9468
    16.1876  16.3802  16.5061  16.7533  17.2169  17.2991  17.3905  17.7479
    17.8041  17.8758  17.9129  18.0032  18.1758  18.6066  18.6280  18.7951
    19.2545  19.4919  20.0878  20.5288  21.0384  21.2031  22.9739  23.6404
    25.2364  26.6849  27.7621  28.2944  29.0781  29.7531  31.3705  33.5636
    35.2978  35.5964  37.0200  37.4062  38.0316  38.6029  40.2197  41.4573
    41.8677  42.1380  42.6847  45.0124  45.8114  46.5713  48.0203  48.7440
    48.9795  50.5701  51.0748  51.7922  52.2919  52.5269  53.6303  53.7888
    54.6565  55.0834  55.8993  56.7997  57.2219  57.5052  58.0164  58.4333
    59.4387  59.8579  60.8148  61.2273  61.7941  62.7538  63.2123  64.2979
    64.6357  65.4507  66.7902  66.9771  67.6735  68.5954  69.1214  69.7453
    70.4596  71.0222  71.7698  72.2762  73.0599  73.7851  74.4066  75.3495
    76.2240  76.8025  77.7462  78.3506  78.8546  79.3031  79.4828  80.1336
    80.8076  80.8738  81.1083  81.8695  82.3414  82.5303  83.0033  83.5567
    84.0319  84.2213  85.1317  85.4248  85.8995  86.3206  86.6688  86.8776
    87.7217  88.0041  88.6616  88.8634

          k =-0.5789 0.9649-0.6233 (  2344 PWs)   bands (ev):

   -87.4860 -87.4835 -87.4791 -87.4756 -54.1419 -46.4693 -46.4515 -46.4314
[...]
    89.1455  89.5710  90.0793  90.2970

          k =-0.5789 1.1579-0.9350 (  2358 PWs)   bands (ev):

   -87.4947 -87.4850 -87.4784 -87.4767 -54.1428 -46.4810 -46.4720 -46.4478
   -46.4305 -46.3899 -46.3835 -46.3770 -46.3720 -46.3411 -46.3254 -46.3063
   -46.2923 -18.9100 -18.9063 -18.9036  13.0164  14.4215  15.3908  15.6971
    15.9640  16.2228  16.4108  16.7005  17.1903  17.4574  17.6187  17.6817
    17.8603  17.9297  18.0004  18.2601  18.4503  18.6163  18.6974  18.8200
    19.5489  19.5845  19.6167  20.3991  21.1979  21.6609  21.7098  23.4698
    24.4212  25.9704  27.7296  29.0012  31.2455  31.9843  32.2725  33.1851
    34.2925  35.0978  36.2505  37.3460  38.0702  38.5332  40.0518  41.3693
    42.2788  43.0465  43.9565  44.3006  45.2379  45.6363  46.9647  48.5244
    48.8331  49.4600  49.8608  51.2689  51.7298  53.1247  53.4188  53.8568
    54.3918  55.0223  55.8741  56.2626  57.2619  57.8773  58.5813  60.0713
    60.4635  60.8958  61.3174  62.0744  63.1199  63.5181  64.4441  64.5372
    64.8482  65.7324  67.1339  67.7730  68.0748  68.4352  69.0405  70.3036
    70.7050  71.1859  71.6654  72.2320  72.4323  73.3089  73.3832  74.3080
    74.5843  75.3582  75.9709  76.4682  76.9194  77.5063  78.5524  79.1391
    79.7766  80.4767  80.9795  81.4443  81.6858  82.1636  82.4899  83.4444
    83.7226  84.6109  84.8216  85.4130  85.6791  86.2884  86.7266  87.0922
    88.0251  88.5271  89.7259  90.2374

          k =-0.3860 0.5789 0.3117 (  2358 PWs)   bands (ev):

   -87.4961 -87.4840 -87.4783 -87.4765 -54.1428 -46.4745 -46.4696 -46.4642
   -46.4358 -46.4087 -46.3920 -46.3753 -46.3527 -46.3355 -46.3158 -46.2983
   -46.2968 -18.9091 -18.9078 -18.9030  12.9583  14.6818  15.4630  15.5237
    15.9170  16.0612  16.4202  16.7943  17.1840  17.3351  17.4926  17.6392
    17.8087  17.9092  18.1089  18.1768  18.5241  18.6241  18.9057  19.0621
    19.4474  19.5405  19.7251  20.1796  21.2862  21.6676  21.7121  23.4560
    24.4404  25.8099  27.8870  29.3323  30.7672  31.5054  32.4268  33.7746
    34.6537  34.9245  35.4301  37.8164  38.3299  39.0284  39.9737  40.7441
    41.6090  42.5449  44.2335  44.5223  45.7355  46.0175  47.6643  48.4945
    48.9837  49.7224  49.9502  50.4680  51.2908  51.8442  52.7194  53.6996
    54.2589  55.4531  56.5408  57.1087  57.8470  58.3862  59.1142  59.2904
    60.5590  60.9954  61.5639  62.3714  62.8937  63.5071  63.9013  64.1334
    64.3375  65.1527  66.9665  67.9006  68.2320  69.2696  69.4275  69.5252
    70.2857  70.5688  71.7582  72.3684  72.8269  73.6246  73.6620  73.8713
    74.7290  75.4697  76.4320  76.8626  77.4542  78.1277  78.4256  78.9185
    79.1992  79.9710  80.7849  81.0045  81.5658  82.0776  82.5425  83.5395
    83.9386  84.2941  85.1245  85.4208  85.8635  86.2543  86.4004  87.4336
    88.5409  88.9287  89.4580  90.4972

          k =-0.3860 0.7719 0.0000 (  2362 PWs)   bands (ev):

   -87.4984 -87.4850 -87.4779 -87.4765 -54.1436 -46.5249 -46.4732 -46.4584
   -46.4454 -46.4233 -46.4073 -46.3630 -46.3545 -46.3238 -46.3165 -46.3123
   -46.2868 -18.9093 -18.9092 -18.8773  11.9637  14.8002  15.2627  15.5276
    15.8816  16.0372  16.1422  16.1530  17.0056  17.2437  17.2562  17.9575
    18.1582  18.2423  18.3012  18.4032  18.5496  18.8539  19.0720  19.1048
    19.1807  19.6634  19.8164  20.8389  21.2155  21.6156  21.8902  22.6989
    25.2139  26.6249  29.2236  30.1221  31.2132  31.4553  31.7280  32.8669
    34.6083  34.6816  35.9559  36.1770  36.7954  39.6630  40.0708  41.5636
    42.4485  42.5576  42.8589  44.1577  44.1733  45.0279  45.3774  46.8862
    48.7741  48.8564  50.4804  51.7752  52.0055  53.8349  53.9489  54.8445
    55.7071  55.8187  56.1555  57.9622  59.0056  59.0614  59.8588  60.5973
    60.9046  60.9829  61.7167  62.2139  62.3791  62.6987  63.4291  64.6005
    64.7318  65.5592  65.8554  66.6293  68.1868  68.7152  68.7908  69.7996
    70.5816  71.2357  72.2335  72.2835  72.9210  73.6819  74.1377  74.4409
    75.3173  75.4009  75.8655  76.0268  76.5445  77.9108  78.4682  78.8952
    79.5289  79.5794  79.8700  79.9945  80.7960  81.2974  81.9738  82.0693
    82.6602  83.5297  84.0934  85.0216  85.2254  86.1378  86.2016  86.7037
    87.7009  88.3697  88.6493  89.7278

          k =-0.3860 0.9649-0.3117 (  2358 PWs)   bands (ev):

   -87.4946 -87.4850 -87.4784 -87.4767 -54.1428 -46.4810 -46.4720 -46.4478
   -46.4305 -46.3899 -46.3835 -46.3770 -46.3720 -46.3411 -46.3254 -46.3063
   -46.2923 -18.9100 -18.9063 -18.9036  13.0164  14.4215  15.3908  15.6971
    15.9640  16.2228  16.4108  16.7005  17.1903  17.4574  17.6187  17.6817
    17.8603  17.9297  18.0004  18.2601  18.4503  18.6163  18.6974  18.8200
    19.5489  19.5845  19.6167  20.3991  21.1979  21.6609  21.7098  23.4698
    24.4212  25.9704  27.7296  29.0012  31.2455  31.9843  32.2725  33.1851
    34.2925  35.0978  36.2505  37.3460  38.0702  38.5332  40.0518  41.3693
    42.2788  43.0465  43.9565  44.3006  45.2379  45.6363  46.9647  48.5244
    48.8331  49.4600  49.8608  51.2689  51.7298  53.1247  53.4188  53.8568
    54.3918  55.0223  55.8741  56.2626  57.2619  57.8773  58.5813  60.0713
    60.4635  60.8958  61.3174  62.0744  63.1199  63.5181  64.4441  64.5372
    64.8482  65.7324  67.1339  67.7730  68.0748  68.4352  69.0405  70.3036
    70.7050  71.1859  71.6654  72.2320  72.4323  73.3089  73.3832  74.3080
    74.5843  75.3582  75.9709  76.4682  76.9194  77.5063  78.5524  79.1391
    79.7766  80.4767  80.9795  81.4443  81.6858  82.1636  82.4899  83.4444
    83.7226  84.6109  84.8216  85.4130  85.6791  86.2884  86.7266  87.0922
    88.0251  88.5271  89.7259  90.2374

          k =-0.3860 1.1579-0.6233 (  2356 PWs)   bands (ev):

   -87.4855 -87.4855 -87.4852 -87.4769 -54.1420 -46.4885 -46.4814 -46.4814
   -46.4734 -46.3745 -46.3590 -46.3590 -46.3348 -46.3135 -46.3135 -46.2998
   -46.2901 -18.9364 -18.9040 -18.9040  14.7467  14.7467  14.9546  14.9699
    16.0104  17.0353  17.0353  17.2792  17.4871  17.5450  17.5450  17.5752
    17.6231  17.6231  17.7048  18.0475  18.0475  18.1353  18.3610  19.1272
    19.4839  19.4839  19.7579  19.7943  21.5058  21.9113  21.9113  22.0532
    22.4516  28.1257  28.1257  28.7453  30.7810  30.9521  31.8308  31.8309
    32.0914  37.4135  37.9793  37.9793  38.7382  40.7284  40.7284  41.3066
    41.4966  44.1372  44.1372  44.2118  45.6162  46.6383  46.6383  47.0952
    49.2156  49.2156  50.0050  51.8353  51.8353  51.9244  52.6992  53.3957
    53.7828  55.0670  55.0670  56.6368  57.2163  57.3926  57.3926  57.8304
    59.3783  61.6379  61.7914  61.7914  63.7437  64.1570  64.3485  64.3485
    64.8260  66.7327  66.7327  67.5983  67.8321  68.3252  68.3252  69.2466
    70.6381  72.0279  72.7625  72.7625  73.1208  73.7207  73.8125  74.3459
    74.3459  75.4203  76.3240  76.3240  77.6458  77.8509  78.3164  78.3164
    78.6086  80.2715  80.2715  80.3190  80.3686  82.6954  83.0138  83.0138
    83.1100  84.5319  87.0041  87.0041  88.3877  88.6426  88.6426  88.9689
    90.2639  90.2639  90.6753  90.7818

          k =-0.1930 0.5789 0.6233 (  2344 PWs)   bands (ev):

   -87.4860 -87.4835 -87.4791 -87.4756 -54.1419 -46.4693 -46.4515 -46.4314
   -46.4163 -46.3645 -46.3475 -46.3423 -46.3338 -46.3113 -46.2956 -46.2785
   -46.2692 -18.9368 -18.9030 -18.9028  14.1335  14.7260  15.1590  15.7278
    16.3976  16.5447  16.8181  17.0303  17.2293  17.2992  17.4236  17.6615
    17.8220  17.9456  18.0731  18.1877  18.3292  18.5721  18.6811  18.9546
    19.1469  19.5043  19.7856  19.9945  21.0902  21.5009  22.2508  22.6549
    22.8392  25.9450  27.5908  28.7733  29.5236  32.1738  32.8137  32.8476
    34.4282  36.1368  37.8977  38.8796  39.0943  39.4729  40.7867  40.9667
    41.7778  42.9575  43.3768  44.1021  44.8836  46.0034  48.0560  48.5640
    48.7116  49.5193  50.3148  50.5429  51.2918  51.9074  52.8611  53.4408
    54.3487  55.3860  55.8215  56.6348  57.3783  57.7725  58.9784  59.3120
    59.6483  61.0473  61.2038  61.6267  62.3682  63.2331  63.5954  64.0901
    64.7920  65.9798  66.3822  66.8210  67.4351  68.0459  68.9288  69.6168
    70.5870  71.1228  72.0331  72.2707  72.9143  73.8655  74.3345  74.5214
    75.2419  76.5521  76.7790  77.2118  77.6952  78.1490  78.6037  79.5134
    79.7227  80.6244  81.1932  81.4693  82.2257  82.3629  82.8314  83.7112
    84.8026  84.9966  85.9521  86.7927  87.2824  87.6345  88.4273  88.7937
    89.1455  89.5710  90.0793  90.2970

          k =-0.1930 0.7719 0.3117 (  2349 PWs)   bands (ev):

   -87.4904 -87.4817 -87.4793 -87.4770 -54.1430 -46.4587 -46.4562 -46.4458
   -46.4227 -46.3952 -46.3816 -46.3753 -46.3502 -46.3223 -46.2900 -46.2701
   -46.2678 -18.9089 -18.9073 -18.9058  13.9503  14.8705  15.0806  15.2951
    15.7002  16.0310  16.4033  16.5716  17.0137  17.3849  17.7199  17.7256
    17.7562  17.8687  18.1116  18.2563  18.7105  18.8035  18.9093  19.3328
    19.5466  19.6239  19.7907  20.0327  21.2107  21.6906  21.8113  22.2620
    23.1823  24.3119  29.2769  30.0578  32.3444  33.5327  33.9501  34.0135
    34.4280  35.0698  36.2422  36.5599  37.9756  39.4536  39.9818  40.2103
    41.1937  42.2647  42.8760  43.6324  44.2485  44.5861  46.6433  46.9917
    49.4665  50.0571  50.8671  51.3206  51.8871  52.2958  53.3289  54.6352
    54.7066  55.3132  55.6468  57.1209  57.6393  57.8291  58.9769  60.2301
    61.3745  61.9531  62.3666  62.8223  63.2217  63.5246  64.8989  65.3495
    65.5545  65.8279  66.1202  67.1191  67.8773  68.4282  68.9592  69.7350
    70.1947  70.3010  71.2257  71.8997  72.1720  72.8172  73.7112  74.2045
    74.3453  74.9420  75.8093  76.1386  76.6971  77.4929  77.9068  78.4349
    78.8073  79.5766  80.2328  80.8456  81.3553  81.9860  82.3935  83.0866
    83.5804  83.8439  85.9560  86.4693  86.7527  87.1604  87.9711  88.4433
    89.0916  89.5273  89.9839  90.1948

          k =-0.1930 0.9649 0.0000 (  2348 PWs)   bands (ev):

   -87.4924 -87.4870 -87.4777 -87.4713 -54.1437 -46.4973 -46.4469 -46.4275
   -46.4184 -46.3979 -46.3883 -46.3540 -46.3358 -46.3333 -46.3055 -46.2774
   -46.2615 -18.9125 -18.9079 -18.8771  13.4069  13.7919  14.8975  15.3982
    15.7558  15.8681  16.2557  16.5635  16.7529  17.0221  17.1152  17.7710
    18.1662  18.4530  18.5271  18.7449  18.8435  18.8642  19.1931  19.2513
    19.5151  19.6120  19.8552  20.5800  20.9452  21.7777  22.2186  22.3416
    24.0301  25.2073  29.7500  30.7812  31.7701  32.6860  33.2171  33.9247
    34.6168  35.0096  36.3436  36.3514  37.2109  38.8185  39.8920  40.4637
    41.7702  42.1614  42.9547  43.1036  44.0666  44.9668  46.3094  46.3337
    47.2667  47.7502  48.6622  51.8963  53.2916  53.6027  54.2105  54.7399
    55.9332  56.8702  57.4925  58.1936  58.2820  59.6464  60.3622  60.7500
    61.2547  61.3936  61.9903  62.1063  62.8242  63.3799  65.1074  65.6605
    65.8898  66.2713  66.3778  67.2847  67.3162  68.2559  68.2888  68.9369
    70.6485  70.7587  71.7158  72.0880  72.4775  72.5465  72.9632  73.7824
    73.7967  74.6304  75.1105  75.5029  76.4092  76.8365  77.7196  77.9760
    78.4988  79.1795  80.5530  80.7585  81.4570  81.6423  81.8102  82.5221
    82.6781  83.9913  84.0308  84.1336  84.7774  86.5084  86.5532  87.0080
    87.8991  88.5832  89.1966  90.4971

          k =-0.1930 1.1579-0.3117 (  2358 PWs)   bands (ev):

   -87.4961 -87.4840 -87.4783 -87.4765 -54.1428 -46.4745 -46.4696 -46.4642
   -46.4358 -46.4087 -46.3920 -46.3753 -46.3527 -46.3355 -46.3158 -46.2983
   -46.2968 -18.9091 -18.9078 -18.9030  12.9583  14.6818  15.4630  15.5237
    15.9170  16.0612  16.4202  16.7943  17.1840  17.3351  17.4926  17.6392
    17.8087  17.9092  18.1089  18.1768  18.5241  18.6241  18.9057  19.0621
    19.4474  19.5405  19.7251  20.1796  21.2862  21.6676  21.7121  23.4560
    24.4404  25.8099  27.8870  29.3323  30.7672  31.5054  32.4268  33.7746
    34.6537  34.9245  35.4301  37.8164  38.3299  39.0284  39.9737  40.7441
    41.6090  42.5449  44.2335  44.5223  45.7355  46.0175  47.6643  48.4945
    48.9837  49.7224  49.9502  50.4680  51.2908  51.8442  52.7194  53.6996
    54.2589  55.4531  56.5408  57.1087  57.8470  58.3862  59.1142  59.2904
    60.5590  60.9954  61.5639  62.3714  62.8937  63.5071  63.9013  64.1334
    64.3375  65.1527  66.9665  67.9006  68.2320  69.2696  69.4275  69.5252
    70.2857  70.5688  71.7582  72.3684  72.8269  73.6246  73.6620  73.8713
    74.7290  75.4697  76.4320  76.8626  77.4542  78.1277  78.4256  78.9185
    79.1992  79.9710  80.7849  81.0045  81.5658  82.0776  82.5425  83.5395
    83.9386  84.2941  85.1245  85.4208  85.8635  86.2543  86.4004  87.4336
    88.5409  88.9287  89.4580  90.4972

          k = 0.0000 0.5789 0.9350 (  2365 PWs)   bands (ev):

   -87.5040 -87.4808 -87.4777 -87.4770 -54.1425 -46.5073 -46.4854 -46.4773
   -46.4509 -46.4274 -46.3892 -46.3842 -46.3571 -46.3400 -46.3296 -46.3055
   -46.2840 -18.9085 -18.9046 -18.9039  11.8519  15.4082  15.5770  15.9468
    16.1876  16.3802  16.5061  16.7533  17.2169  17.2991  17.3905  17.7479
    17.8041  17.8758  17.9129  18.0032  18.1758  18.6066  18.6280  18.7951
    19.2545  19.4919  20.0878  20.5288  21.0384  21.2031  22.9739  23.6404
    25.2364  26.6849  27.7621  28.2944  29.0781  29.7531  31.3705  33.5636
    35.2978  35.5964  37.0200  37.4062  38.0316  38.6029  40.2197  41.4573
    41.8677  42.1380  42.6847  45.0124  45.8114  46.5713  48.0203  48.7440
    48.9795  50.5701  51.0748  51.7922  52.2919  52.5269  53.6303  53.7888
    54.6565  55.0834  55.8993  56.7997  57.2219  57.5052  58.0164  58.4333
    59.4387  59.8579  60.8148  61.2273  61.7941  62.7538  63.2123  64.2979
    64.6357  65.4507  66.7902  66.9771  67.6735  68.5954  69.1214  69.7453
    70.4596  71.0222  71.7698  72.2762  73.0599  73.7851  74.4066  75.3495
    76.2240  76.8025  77.7462  78.3506  78.8546  79.3031  79.4828  80.1336
    80.8076  80.8738  81.1083  81.8695  82.3414  82.5303  83.0033  83.5567
    84.0319  84.2213  85.1317  85.4248  85.8995  86.3206  86.6688  86.8776
    87.7217  88.0041  88.6616  88.8634

          k = 0.0000 0.7719 0.6233 (  2340 PWs)   bands (ev):

   -87.4880 -87.4777 -87.4777 -87.4777 -54.1419 -46.4525 -46.4525 -46.4145
   -46.4062 -46.3444 -46.3433 -46.3433 -46.3096 -46.2910 -46.2910 -46.2909
   -46.2843 -18.9365 -18.9027 -18.9027  13.7133  15.3201  15.3201  15.5569
    15.9209  16.6179  17.0013  17.2348  17.2454  17.2454  17.6579  17.9019
    17.9278  17.9278  18.1791  18.1791  18.3369  18.3552  18.7907  18.8612
    18.8612  19.6119  19.8229  19.8229  21.0901  21.2095  22.8330  23.4445
    23.4445  23.9724  27.8769  28.7526  29.0550  29.0550  35.3169  35.4651
    36.1401  36.1401  37.8746  37.8746  39.6114  40.4907  40.7600  40.8235
    40.8235  41.9779  42.8401  42.8401  43.4768  43.8620  47.3501  49.0149
    49.0212  49.0212  51.6941  51.8861  51.8861  52.7138  54.1118  55.1588
    55.1588  56.2655  56.5682  57.4574  57.4574  58.0092  58.7551  58.7551
    58.8449  60.3465  60.4457  61.2944  61.4130  61.4130  62.6237  62.7338
    62.7338  64.3948  65.4030  66.2805  69.0446  69.0446  70.1308  70.7710
    70.9648  71.0410  71.0410  73.6633  73.9862  73.9862  74.2108  75.0551
    76.6710  76.6710  77.2626  78.4987  78.6482  79.3533  79.3533  80.0419
    80.9736  80.9736  81.2325  81.3638  82.1172  82.1172  82.6518  83.1995
    84.5235  84.5235  84.6800  85.4644  85.4644  86.5598  87.0829  88.4029
    88.4029  88.9935  89.8026  89.8026

          k = 0.0000 0.9649 0.3117 (  2349 PWs)   bands (ev):

   -87.4904 -87.4817 -87.4793 -87.4770 -54.1430 -46.4587 -46.4562 -46.4458
   -46.4227 -46.3952 -46.3816 -46.3753 -46.3502 -46.3223 -46.2900 -46.2701
   -46.2678 -18.9089 -18.9073 -18.9058  13.9503  14.8705  15.0806  15.2951
    15.7002  16.0310  16.4033  16.5716  17.0137  17.3849  17.7199  17.7256
    17.7562  17.8687  18.1116  18.2563  18.7105  18.8035  18.9093  19.3328
    19.5466  19.6239  19.7907  20.0327  21.2107  21.6906  21.8113  22.2620
    23.1823  24.3119  29.2769  30.0578  32.3444  33.5327  33.9501  34.0135
    34.4280  35.0698  36.2422  36.5599  37.9756  39.4536  39.9818  40.2103
    41.1937  42.2647  42.8760  43.6324  44.2485  44.5861  46.6433  46.9917
    49.4665  50.0571  50.8671  51.3206  51.8871  52.2958  53.3289  54.6352
    54.7066  55.3132  55.6468  57.1209  57.6393  57.8291  58.9769  60.2301
    61.3745  61.9531  62.3666  62.8223  63.2217  63.5246  64.8989  65.3495
    65.5545  65.8279  66.1202  67.1191  67.8773  68.4282  68.9592  69.7350
    70.1947  70.3010  71.2257  71.8997  72.1720  72.8172  73.7112  74.2045
    74.3453  74.9420  75.8093  76.1386  76.6971  77.4929  77.9068  78.4349
    78.8073  79.5766  80.2328  80.8456  81.3553  81.9860  82.3935  83.0866
    83.5804  83.8439  85.9560  86.4693  86.7527  87.1604  87.9711  88.4433
    89.0916  89.5273  89.9839  90.1948

          k = 0.0000 1.1579 0.0000 (  2362 PWs)   bands (ev):

   -87.4984 -87.4850 -87.4779 -87.4765 -54.1436 -46.5249 -46.4732 -46.4584
   -46.4454 -46.4233 -46.4073 -46.3630 -46.3545 -46.3238 -46.3165 -46.3123
   -46.2868 -18.9093 -18.9092 -18.8773  11.9637  14.8002  15.2627  15.5276
    15.8816  16.0372  16.1422  16.1530  17.0056  17.2437  17.2562  17.9575
    18.1582  18.2423  18.3012  18.4032  18.5496  18.8539  19.0720  19.1048
    19.1807  19.6634  19.8164  20.8389  21.2155  21.6156  21.8902  22.6989
    25.2139  26.6249  29.2236  30.1221  31.2132  31.4553  31.7280  32.8669
    34.6083  34.6816  35.9559  36.1770  36.7954  39.6630  40.0708  41.5636
    42.4485  42.5576  42.8589  44.1577  44.1733  45.0279  45.3774  46.8862
    48.7741  48.8564  50.4804  51.7752  52.0055  53.8349  53.9489  54.8445
    55.7071  55.8187  56.1555  57.9622  59.0056  59.0614  59.8588  60.5973
    60.9046  60.9829  61.7167  62.2139  62.3791  62.6987  63.4291  64.6005
    64.7318  65.5592  65.8554  66.6293  68.1868  68.7152  68.7908  69.7996
    70.5816  71.2357  72.2335  72.2835  72.9210  73.6819  74.1377  74.4409
    75.3173  75.4009  75.8655  76.0268  76.5445  77.9108  78.4682  78.8952
    79.5289  79.5794  79.8700  79.9945  80.7960  81.2974  81.9738  82.0693
    82.6602  83.5297  84.0934  85.0216  85.2254  86.1378  86.2016  86.7037
    87.7009  88.3697  88.6493  89.7278

     the Fermi energy is    19.9723 ev
     (compare with:    19.9707 eV, computed in scf)

     Writing all to output data dir ././tmp1/Ni4W.save/ :
     XML data file, pseudopotentials, collected wavefunctions

     init_run     :      0.06s CPU      0.06s WALL (       1 calls)
     electrons    :    122.91s CPU    126.44s WALL (       1 calls)

     Called by init_run:
     wfcinit      :      0.00s CPU      0.00s WALL (       1 calls)
     potinit      :      0.00s CPU      0.00s WALL (       1 calls)
     hinit0       :      0.05s CPU      0.06s WALL (       1 calls)

     Called by electrons:
     c_bands      :    122.90s CPU    126.43s WALL (       1 calls)
     v_of_rho     :      0.00s CPU      0.00s WALL (       1 calls)

     Called by c_bands:
     init_us_2    :      0.01s CPU      0.01s WALL (      64 calls)
     ccgdiagg     :    114.97s CPU    118.46s WALL (     342 calls)
     wfcrot       :      7.77s CPU      7.81s WALL (     342 calls)

     Called by *cgdiagg:
     h_psi        :     70.54s CPU     73.92s WALL (  514860 calls)

     Called by h_psi:
     h_psi:calbec :     11.23s CPU     12.05s WALL (  514860 calls)
     vloc_psi     :     51.83s CPU     53.59s WALL (  514860 calls)
     add_vuspsi   :      6.42s CPU      7.22s WALL (  514860 calls)
     hs_1psi      :     66.34s CPU     69.68s WALL (  514518 calls)
     s_1psi       :      9.18s CPU      9.21s WALL (  514518 calls)

     General routines
     calbec       :     19.47s CPU     20.35s WALL ( 1029378 calls)
     fft          :      0.02s CPU      0.02s WALL (      11 calls)
     fftw         :     45.90s CPU     47.62s WALL ( 1124796 calls)
     davcio       :      0.03s CPU      0.03s WALL (     128 calls)

     Parallel routines

     PWSCF        :   2m 3.30s CPU   2m 7.00s WALL


   This run was terminated on:  13:48:55   5Aug2024            

=------------------------------------------------------------------------------=
   JOB DONE.
=------------------------------------------------------------------------------=
