File written on  8Dec2025 at 13:13:14 

calc_only_A  :  F

begin real_lattice
   1.4349963   1.4349963   1.4349963
  -1.4349963   1.4349963   1.4349963
  -1.4349963  -1.4349963   1.4349963
end real_lattice

begin recip_lattice
   2.1892688   0.0000000   2.1892688
  -2.1892688   2.1892688   0.0000000
   0.0000000  -2.1892688   2.1892688
end recip_lattice

begin kpoints
    27
    0.00000000    0.00000000    0.00000000
    0.00000000    0.00000000    0.33333333
    0.00000000    0.00000000    0.66666667
    0.00000000    0.33333333    0.00000000
    0.00000000    0.33333333    0.33333333
    0.00000000    0.33333333    0.66666667
    0.00000000    0.66666667    0.00000000
    0.00000000    0.66666667    0.33333333
    0.00000000    0.66666667    0.66666667
    0.33333333    0.00000000    0.00000000
    0.33333333    0.00000000    0.33333333
    0.33333333    0.00000000    0.66666667
    0.33333333    0.33333333    0.00000000
    0.33333333    0.33333333    0.33333333
    0.33333333    0.33333333    0.66666667
    0.33333333    0.66666667    0.00000000
    0.33333333    0.66666667    0.33333333
    0.33333333    0.66666667    0.66666667
    0.66666667    0.00000000    0.00000000
    0.66666667    0.00000000    0.33333333
    0.66666667    0.00000000    0.66666667
    0.66666667    0.33333333    0.00000000
    0.66666667    0.33333333    0.33333333
    0.66666667    0.33333333    0.66666667
    0.66666667    0.66666667    0.00000000
    0.66666667    0.66666667    0.33333333
    0.66666667    0.66666667    0.66666667
end kpoints

begin spinor_projections
    18
   0.00000    0.00000    0.00000    -5  1  1
    0.0000000  0.0000000  1.0000000   1.0000000  0.0000000  0.0000000    1.00
    1   0.0000000  0.0000000  1.0000000
   0.00000    0.00000    0.00000    -5  1  1
    0.0000000  0.0000000  1.0000000   1.0000000  0.0000000  0.0000000    1.00
   -1   0.0000000  0.0000000  1.0000000
   0.00000    0.00000    0.00000    -5  2  1
    0.0000000  0.0000000  1.0000000   1.0000000  0.0000000  0.0000000    1.00
    1   0.0000000  0.0000000  1.0000000
   0.00000    0.00000    0.00000    -5  2  1
    0.0000000  0.0000000  1.0000000   1.0000000  0.0000000  0.0000000    1.00
   -1   0.0000000  0.0000000  1.0000000
   0.00000    0.00000    0.00000    -5  3  1
    0.0000000  0.0000000  1.0000000   1.0000000  0.0000000  0.0000000    1.00
    1   0.0000000  0.0000000  1.0000000
   0.00000    0.00000    0.00000    -5  3  1
    0.0000000  0.0000000  1.0000000   1.0000000  0.0000000  0.0000000    1.00
   -1   0.0000000  0.0000000  1.0000000
   0.00000    0.00000    0.00000    -5  4  1
    0.0000000  0.0000000  1.0000000   1.0000000  0.0000000  0.0000000    1.00
    1   0.0000000  0.0000000  1.0000000
   0.00000    0.00000    0.00000    -5  4  1
    0.0000000  0.0000000  1.0000000   1.0000000  0.0000000  0.0000000    1.00
   -1   0.0000000  0.0000000  1.0000000
   0.00000    0.00000    0.00000    -5  5  1
    0.0000000  0.0000000  1.0000000   1.0000000  0.0000000  0.0000000    1.00
    1   0.0000000  0.0000000  1.0000000
   0.00000    0.00000    0.00000    -5  5  1
    0.0000000  0.0000000  1.0000000   1.0000000  0.0000000  0.0000000    1.00
   -1   0.0000000  0.0000000  1.0000000
   0.00000    0.00000    0.00000    -5  6  1
    0.0000000  0.0000000  1.0000000   1.0000000  0.0000000  0.0000000    1.00
    1   0.0000000  0.0000000  1.0000000
   0.00000    0.00000    0.00000    -5  6  1
    0.0000000  0.0000000  1.0000000   1.0000000  0.0000000  0.0000000    1.00
   -1   0.0000000  0.0000000  1.0000000
   0.00000    0.00000    0.00000     2  2  1
    0.0000000  0.0000000  1.0000000   1.0000000  0.0000000  0.0000000    1.00
    1   0.0000000  0.0000000  1.0000000
   0.00000    0.00000    0.00000     2  2  1
    0.0000000  0.0000000  1.0000000   1.0000000  0.0000000  0.0000000    1.00
   -1   0.0000000  0.0000000  1.0000000
   0.00000    0.00000    0.00000     2  3  1
    0.0000000  0.0000000  1.0000000   1.0000000  0.0000000  0.0000000    1.00
    1   0.0000000  0.0000000  1.0000000
   0.00000    0.00000    0.00000     2  3  1
    0.0000000  0.0000000  1.0000000   1.0000000  0.0000000  0.0000000    1.00
   -1   0.0000000  0.0000000  1.0000000
   0.00000    0.00000    0.00000     2  5  1
    0.0000000  0.0000000  1.0000000   1.0000000  0.0000000  0.0000000    1.00
    1   0.0000000  0.0000000  1.0000000
   0.00000    0.00000    0.00000     2  5  1
    0.0000000  0.0000000  1.0000000   1.0000000  0.0000000  0.0000000    1.00
   -1   0.0000000  0.0000000  1.0000000
end spinor_projections

begin nnkpts
  12
     1     2      0   0   0
     1     4      0   0   0
     1     5      0   0   0
     1    10      0   0   0
     1    13      0   0   0
     1     3      0   0  -1
     1    12      0   0  -1
     1     7      0  -1   0
     1     9      0  -1  -1
     1    19     -1   0   0
     1    20     -1   0   0
     1    25     -1  -1   0
     2     1      0   0   0
     2     3      0   0   0
     2     5      0   0   0
     2     6      0   0   0
     2    10      0   0   0
     2    11      0   0   0
     2    14      0   0   0
     2     7      0  -1   0
     2     8      0  -1   0
     2    20     -1   0   0
     2    21     -1   0   0
     2    26     -1  -1   0
     3     2      0   0   0
     3     6      0   0   0
     3    11      0   0   0
     3    12      0   0   0
     3    15      0   0   0
     3     1      0   0   1
     3     4      0   0   1
     3     8      0  -1   0
     3     9      0  -1   0
     3    19     -1   0   1
     3    21     -1   0   0
     3    27     -1  -1   0
     4     1      0   0   0
     4     5      0   0   0
     4     7      0   0   0
     4     8      0   0   0
     4    13      0   0   0
     4    16      0   0   0
     4     3      0   0  -1
     4     6      0   0  -1
     4    15      0   0  -1
     4    19     -1   0   0
     4    22     -1   0   0
     4    23     -1   0   0
     5     1      0   0   0
     5     2      0   0   0
     5     4      0   0   0
     5     6      0   0   0
     5     8      0   0   0
     5     9      0   0   0
     5    13      0   0   0
     5    14      0   0   0
     5    17      0   0   0
     5    20     -1   0   0
     5    23     -1   0   0
     5    24     -1   0   0
     6     2      0   0   0
     6     3      0   0   0
     6     5      0   0   0
     6     9      0   0   0
     6    14      0   0   0
     6    15      0   0   0
     6    18      0   0   0
     6     4      0   0   1
     6     7      0   0   1
     6    22     -1   0   1
     6    21     -1   0   0
     6    24     -1   0   0
     7     4      0   0   0
     7     8      0   0   0
     7    16      0   0   0
     7     1      0   1   0
     7     2      0   1   0
     7    10      0   1   0
     7     6      0   0  -1
     7     9      0   0  -1
     7    18      0   0  -1
     7    22     -1   0   0
     7    25     -1   0   0
     7    26     -1   0   0
     8     4      0   0   0
     8     5      0   0   0
     8     7      0   0   0
     8     9      0   0   0
     8    16      0   0   0
     8    17      0   0   0
     8     2      0   1   0
     8     3      0   1   0
     8    11      0   1   0
     8    23     -1   0   0
     8    26     -1   0   0
     8    27     -1   0   0
     9     5      0   0   0
     9     6      0   0   0
     9     8      0   0   0
     9    17      0   0   0
     9    18      0   0   0
     9     1      0   1   1
     9     3      0   1   0
     9    12      0   1   0
     9     7      0   0   1
     9    25     -1   0   1
     9    24     -1   0   0
     9    27     -1   0   0
    10     1      0   0   0
    10     2      0   0   0
    10    11      0   0   0
    10    13      0   0   0
    10    14      0   0   0
    10    19      0   0   0
    10    22      0   0   0
    10    12      0   0  -1
    10    21      0   0  -1
    10     7      0  -1   0
    10    16      0  -1   0
    10    18      0  -1  -1
    11     2      0   0   0
    11     3      0   0   0
    11    10      0   0   0
    11    12      0   0   0
    11    14      0   0   0
    11    15      0   0   0
    11    19      0   0   0
    11    20      0   0   0
    11    23      0   0   0
    11     8      0  -1   0
    11    16      0  -1   0
    11    17      0  -1   0
    12     3      0   0   0
    12    11      0   0   0
    12    15      0   0   0
    12    20      0   0   0
    12    21      0   0   0
    12    24      0   0   0
    12     1      0   0   1
    12    10      0   0   1
    12    13      0   0   1
    12     9      0  -1   0
    12    17      0  -1   0
    12    18      0  -1   0
    13     1      0   0   0
    13     4      0   0   0
    13     5      0   0   0
    13    10      0   0   0
    13    14      0   0   0
    13    16      0   0   0
    13    17      0   0   0
    13    22      0   0   0
    13    25      0   0   0
    13    12      0   0  -1
    13    15      0   0  -1
    13    24      0   0  -1
    14     2      0   0   0
    14     5      0   0   0
    14     6      0   0   0
    14    10      0   0   0
    14    11      0   0   0
    14    13      0   0   0
    14    15      0   0   0
    14    17      0   0   0
    14    18      0   0   0
    14    22      0   0   0
    14    23      0   0   0
    14    26      0   0   0
    15     3      0   0   0
    15     6      0   0   0
    15    11      0   0   0
    15    12      0   0   0
    15    14      0   0   0
    15    18      0   0   0
    15    23      0   0   0
    15    24      0   0   0
    15    27      0   0   0
    15     4      0   0   1
    15    13      0   0   1
    15    16      0   0   1
    16     4      0   0   0
    16     7      0   0   0
    16     8      0   0   0
    16    13      0   0   0
    16    17      0   0   0
    16    25      0   0   0
    16    10      0   1   0
    16    11      0   1   0
    16    19      0   1   0
    16    15      0   0  -1
    16    18      0   0  -1
    16    27      0   0  -1
    17     5      0   0   0
    17     8      0   0   0
    17     9      0   0   0
    17    13      0   0   0
    17    14      0   0   0
    17    16      0   0   0
    17    18      0   0   0
    17    25      0   0   0
    17    26      0   0   0
    17    11      0   1   0
    17    12      0   1   0
    17    20      0   1   0
    18     6      0   0   0
    18     9      0   0   0
    18    14      0   0   0
    18    15      0   0   0
    18    17      0   0   0
    18    26      0   0   0
    18    27      0   0   0
    18    10      0   1   1
    18    12      0   1   0
    18    21      0   1   0
    18     7      0   0   1
    18    16      0   0   1
    19    10      0   0   0
    19    11      0   0   0
    19    20      0   0   0
    19    22      0   0   0
    19    23      0   0   0
    19     1      1   0   0
    19     4      1   0   0
    19     3      1   0  -1
    19    21      0   0  -1
    19    16      0  -1   0
    19    25      0  -1   0
    19    27      0  -1  -1
    20    11      0   0   0
    20    12      0   0   0
    20    19      0   0   0
    20    21      0   0   0
    20    23      0   0   0
    20    24      0   0   0
    20     1      1   0   0
    20     2      1   0   0
    20     5      1   0   0
    20    17      0  -1   0
    20    25      0  -1   0
    20    26      0  -1   0
    21    12      0   0   0
    21    20      0   0   0
    21    24      0   0   0
    21     2      1   0   0
    21     3      1   0   0
    21     6      1   0   0
    21    10      0   0   1
    21    19      0   0   1
    21    22      0   0   1
    21    18      0  -1   0
    21    26      0  -1   0
    21    27      0  -1   0
    22    10      0   0   0
    22    13      0   0   0
    22    14      0   0   0
    22    19      0   0   0
    22    23      0   0   0
    22    25      0   0   0
    22    26      0   0   0
    22     4      1   0   0
    22     7      1   0   0
    22     6      1   0  -1
    22    21      0   0  -1
    22    24      0   0  -1
    23    11      0   0   0
    23    14      0   0   0
    23    15      0   0   0
    23    19      0   0   0
    23    20      0   0   0
    23    22      0   0   0
    23    24      0   0   0
    23    26      0   0   0
    23    27      0   0   0
    23     4      1   0   0
    23     5      1   0   0
    23     8      1   0   0
    24    12      0   0   0
    24    15      0   0   0
    24    20      0   0   0
    24    21      0   0   0
    24    23      0   0   0
    24    27      0   0   0
    24     5      1   0   0
    24     6      1   0   0
    24     9      1   0   0
    24    13      0   0   1
    24    22      0   0   1
    24    25      0   0   1
    25    13      0   0   0
    25    16      0   0   0
    25    17      0   0   0
    25    22      0   0   0
    25    26      0   0   0
    25     1      1   1   0
    25     7      1   0   0
    25     9      1   0  -1
    25    19      0   1   0
    25    20      0   1   0
    25    24      0   0  -1
    25    27      0   0  -1
    26    14      0   0   0
    26    17      0   0   0
    26    18      0   0   0
    26    22      0   0   0
    26    23      0   0   0
    26    25      0   0   0
    26    27      0   0   0
    26     2      1   1   0
    26     7      1   0   0
    26     8      1   0   0
    26    20      0   1   0
    26    21      0   1   0
    27    15      0   0   0
    27    18      0   0   0
    27    23      0   0   0
    27    24      0   0   0
    27    26      0   0   0
    27     3      1   1   0
    27     8      1   0   0
    27     9      1   0   0
    27    19      0   1   1
    27    21      0   1   0
    27    16      0   0   1
    27    25      0   0   1
end nnkpts

begin exclude_bands
   8
   1
   2
   3
   4
   5
   6
   7
   8
end exclude_bands
