
             +---------------------------------------------------+
             |                                                   |
             |                   WANNIER90                       |
             |                                                   |
             +---------------------------------------------------+
             |                                                   |
             |        Welcome to the Maximally-Localized         |
             |        Generalized Wannier Functions code         |
             |            http://www.wannier.org                 |
             |                                                   |
             |                                                   |
             |  Wannier90 Developer Group:                       |
             |    Giovanni Pizzi    (EPFL)                       |
             |    Valerio Vitale    (Cambridge)                  |
             |    David Vanderbilt  (Rutgers University)         |
             |    Nicola Marzari    (EPFL)                       |
             |    Ivo Souza         (Universidad del Pais Vasco) |
             |    Arash A. Mostofi  (Imperial College London)    |
             |    Jonathan R. Yates (University of Oxford)       |
             |                                                   |
             |  For the full list of Wannier90 3.x authors,      |
             |  please check the code documentation and the      |
             |  README on the GitHub page of the code            |
             |                                                   |
             |                                                   |
             |  Please cite                                      |
             |                                                   |
             |  [ref] "An updated version of Wannier90:          |
             |        A Tool for Obtaining Maximally Localised   |
             |        Wannier Functions", A. A. Mostofi,         |
             |        J. R. Yates, G. Pizzi, Y. S. Lee,          |
             |        I. Souza, D. Vanderbilt and N. Marzari,    |
             |        Comput. Phys. Commun. 185, 2309 (2014)     |
             |        http://dx.doi.org/10.1016/j.cpc.2014.05.003|
             |                                                   |
             |  in any publications arising from the use of      |
             |  this code. For the method please cite            |
             |                                                   |
             |  [ref] "Maximally Localized Generalised Wannier   |
             |         Functions for Composite Energy Bands"     |
             |         N. Marzari and D. Vanderbilt              |
             |         Phys. Rev. B 56 12847 (1997)              |
             |                                                   |
             |  [ref] "Maximally Localized Wannier Functions     |
             |         for Entangled Energy Bands"               |
             |         I. Souza, N. Marzari and D. Vanderbilt    |
             |         Phys. Rev. B 65 035109 (2001)             |
             |                                                   |
             |                                                   |
             | Copyright (c) 1996-2019                           |
             |        The Wannier90 Developer Group and          |
             |        individual contributors                    |
             |                                                   |
             |      Release: 3.0.0       27th February 2019      |
             |                                                   |
             | This program is free software; you can            |
             | redistribute it and/or modify it under the terms  |
             | of the GNU General Public License as published by |
             | the Free Software Foundation; either version 2 of |
             | the License, or (at your option) any later version|
             |                                                   |
             | This program is distributed in the hope that it   |
             | will be useful, but WITHOUT ANY WARRANTY; without |
             | even the implied warranty of MERCHANTABILITY or   |
             | FITNESS FOR A PARTICULAR PURPOSE. See the GNU     |
             | General Public License for more details.          |
             |                                                   |
             | You should have received a copy of the GNU General|
             | Public License along with this program; if not,   |
             | write to the Free Software Foundation, Inc.,      |
             | 675 Mass Ave, Cambridge, MA 02139, USA.           |
             |                                                   |
             +---------------------------------------------------+
             |    Execution started on  3Jul2019 at 21:18:39     |
             +---------------------------------------------------+
 
 ******************************************************************************
 * -> Using CODATA 2006 constant values                                       *
 *    (http://physics.nist.gov/cuu/Constants/index.html)                      *
 * -> Using Bohr value from CODATA                                            *
 ******************************************************************************
 

 Running in serial (with serial executable)

                                    ------
                                    SYSTEM
                                    ------

                              Lattice Vectors (Ang)
                    a_1     1.434996   1.434996   1.434996
                    a_2    -1.434996   1.434996   1.434996
                    a_3    -1.434996  -1.434996   1.434996

                   Unit Cell Volume:      11.81986  (Ang^3)

                        Reciprocal-Space Vectors (Ang^-1)
                    b_1     2.189269   0.000000   2.189269
                    b_2    -2.189269   2.189269   0.000000
                    b_3     0.000000  -2.189269   2.189269
  
 *----------------------------------------------------------------------------*
 |   Site       Fractional Coordinate          Cartesian Coordinate (Ang)     |
 +----------------------------------------------------------------------------+
 | Fe   1   0.00000   0.00000   0.00000   |    0.00000   0.00000   0.00000    |
 *----------------------------------------------------------------------------*
                                -----------
                                PROJECTIONS
                                -----------
  
 +----------------------------------------------------------------------------+
 |     Frac. Coord.   l mr  r        z-axis               x-axis          Z/a |
 +----------------------------------------------------------------------------+
 |  0.00  0.00  0.00 -5  1  1  0.000  0.000  1.000  1.000  0.000  0.000   1.0 |
 |  0.00  0.00  0.00 -5  1  1  0.000  0.000  1.000  1.000  0.000  0.000   1.0 |
 |  0.00  0.00  0.00 -5  2  1  0.000  0.000  1.000  1.000  0.000  0.000   1.0 |
 |  0.00  0.00  0.00 -5  2  1  0.000  0.000  1.000  1.000  0.000  0.000   1.0 |
 |  0.00  0.00  0.00 -5  3  1  0.000  0.000  1.000  1.000  0.000  0.000   1.0 |
 |  0.00  0.00  0.00 -5  3  1  0.000  0.000  1.000  1.000  0.000  0.000   1.0 |
 |  0.00  0.00  0.00 -5  4  1  0.000  0.000  1.000  1.000  0.000  0.000   1.0 |
 |  0.00  0.00  0.00 -5  4  1  0.000  0.000  1.000  1.000  0.000  0.000   1.0 |
 |  0.00  0.00  0.00 -5  5  1  0.000  0.000  1.000  1.000  0.000  0.000   1.0 |
 |  0.00  0.00  0.00 -5  5  1  0.000  0.000  1.000  1.000  0.000  0.000   1.0 |
 |  0.00  0.00  0.00 -5  6  1  0.000  0.000  1.000  1.000  0.000  0.000   1.0 |
 |  0.00  0.00  0.00 -5  6  1  0.000  0.000  1.000  1.000  0.000  0.000   1.0 |
 |  0.00  0.00  0.00  2  2  1  0.000  0.000  1.000  1.000  0.000  0.000   1.0 |
 |  0.00  0.00  0.00  2  2  1  0.000  0.000  1.000  1.000  0.000  0.000   1.0 |
 |  0.00  0.00  0.00  2  3  1  0.000  0.000  1.000  1.000  0.000  0.000   1.0 |
 |  0.00  0.00  0.00  2  3  1  0.000  0.000  1.000  1.000  0.000  0.000   1.0 |
 |  0.00  0.00  0.00  2  5  1  0.000  0.000  1.000  1.000  0.000  0.000   1.0 |
 |  0.00  0.00  0.00  2  5  1  0.000  0.000  1.000  1.000  0.000  0.000   1.0 |
 +----------------------------------------------------------------------------+
  
                                ------------
                                K-POINT GRID
                                ------------
  
             Grid size =  8 x  8 x  8      Total points =  512
  
 *----------------------------------------------------------------------------*
 | k-point      Fractional Coordinate        Cartesian Coordinate (Ang^-1)    |
 +----------------------------------------------------------------------------+
 |     1    0.00000   0.00000   0.00000   |    0.00000   0.00000   0.00000    |
 |     2    0.00000   0.00000   0.12500   |    0.00000  -0.27366   0.27366    |
 |     3    0.00000   0.00000   0.25000   |    0.00000  -0.54732   0.54732    |
 |     4    0.00000   0.00000   0.37500   |    0.00000  -0.82098   0.82098    |
 |     5    0.00000   0.00000   0.50000   |    0.00000  -1.09463   1.09463    |
 |     6    0.00000   0.00000   0.62500   |    0.00000  -1.36829   1.36829    |
 |     7    0.00000   0.00000   0.75000   |    0.00000  -1.64195   1.64195    |
 |     8    0.00000   0.00000   0.87500   |    0.00000  -1.91561   1.91561    |
 |     9    0.00000   0.12500   0.00000   |   -0.27366   0.27366   0.00000    |
 |    10    0.00000   0.12500   0.12500   |   -0.27366   0.00000   0.27366    |
 |    11    0.00000   0.12500   0.25000   |   -0.27366  -0.27366   0.54732    |
 |    12    0.00000   0.12500   0.37500   |   -0.27366  -0.54732   0.82098    |
 |    13    0.00000   0.12500   0.50000   |   -0.27366  -0.82098   1.09463    |
 |    14    0.00000   0.12500   0.62500   |   -0.27366  -1.09463   1.36829    |
 |    15    0.00000   0.12500   0.75000   |   -0.27366  -1.36829   1.64195    |
 |    16    0.00000   0.12500   0.87500   |   -0.27366  -1.64195   1.91561    |
 |    17    0.00000   0.25000   0.00000   |   -0.54732   0.54732   0.00000    |
 |    18    0.00000   0.25000   0.12500   |   -0.54732   0.27366   0.27366    |
 |    19    0.00000   0.25000   0.25000   |   -0.54732   0.00000   0.54732    |
 |    20    0.00000   0.25000   0.37500   |   -0.54732  -0.27366   0.82098    |
 |    21    0.00000   0.25000   0.50000   |   -0.54732  -0.54732   1.09463    |
 |    22    0.00000   0.25000   0.62500   |   -0.54732  -0.82098   1.36829    |
 |    23    0.00000   0.25000   0.75000   |   -0.54732  -1.09463   1.64195    |
 |    24    0.00000   0.25000   0.87500   |   -0.54732  -1.36829   1.91561    |
 |    25    0.00000   0.37500   0.00000   |   -0.82098   0.82098   0.00000    |
 |    26    0.00000   0.37500   0.12500   |   -0.82098   0.54732   0.27366    |
 |    27    0.00000   0.37500   0.25000   |   -0.82098   0.27366   0.54732    |
 |    28    0.00000   0.37500   0.37500   |   -0.82098   0.00000   0.82098    |
 |    29    0.00000   0.37500   0.50000   |   -0.82098  -0.27366   1.09463    |
 |    30    0.00000   0.37500   0.62500   |   -0.82098  -0.54732   1.36829    |
 |    31    0.00000   0.37500   0.75000   |   -0.82098  -0.82098   1.64195    |
 |    32    0.00000   0.37500   0.87500   |   -0.82098  -1.09463   1.91561    |
 |    33    0.00000   0.50000   0.00000   |   -1.09463   1.09463   0.00000    |
 |    34    0.00000   0.50000   0.12500   |   -1.09463   0.82098   0.27366    |
 |    35    0.00000   0.50000   0.25000   |   -1.09463   0.54732   0.54732    |
 |    36    0.00000   0.50000   0.37500   |   -1.09463   0.27366   0.82098    |
 |    37    0.00000   0.50000   0.50000   |   -1.09463   0.00000   1.09463    |
 |    38    0.00000   0.50000   0.62500   |   -1.09463  -0.27366   1.36829    |
 |    39    0.00000   0.50000   0.75000   |   -1.09463  -0.54732   1.64195    |
 |    40    0.00000   0.50000   0.87500   |   -1.09463  -0.82098   1.91561    |
 |    41    0.00000   0.62500   0.00000   |   -1.36829   1.36829   0.00000    |
 |    42    0.00000   0.62500   0.12500   |   -1.36829   1.09463   0.27366    |
 |    43    0.00000   0.62500   0.25000   |   -1.36829   0.82098   0.54732    |
 |    44    0.00000   0.62500   0.37500   |   -1.36829   0.54732   0.82098    |
 |    45    0.00000   0.62500   0.50000   |   -1.36829   0.27366   1.09463    |
 |    46    0.00000   0.62500   0.62500   |   -1.36829   0.00000   1.36829    |
 |    47    0.00000   0.62500   0.75000   |   -1.36829  -0.27366   1.64195    |
 |    48    0.00000   0.62500   0.87500   |   -1.36829  -0.54732   1.91561    |
 |    49    0.00000   0.75000   0.00000   |   -1.64195   1.64195   0.00000    |
 |    50    0.00000   0.75000   0.12500   |   -1.64195   1.36829   0.27366    |
 |    51    0.00000   0.75000   0.25000   |   -1.64195   1.09463   0.54732    |
 |    52    0.00000   0.75000   0.37500   |   -1.64195   0.82098   0.82098    |
 |    53    0.00000   0.75000   0.50000   |   -1.64195   0.54732   1.09463    |
 |    54    0.00000   0.75000   0.62500   |   -1.64195   0.27366   1.36829    |
 |    55    0.00000   0.75000   0.75000   |   -1.64195   0.00000   1.64195    |
 |    56    0.00000   0.75000   0.87500   |   -1.64195  -0.27366   1.91561    |
 |    57    0.00000   0.87500   0.00000   |   -1.91561   1.91561   0.00000    |
 |    58    0.00000   0.87500   0.12500   |   -1.91561   1.64195   0.27366    |
 |    59    0.00000   0.87500   0.25000   |   -1.91561   1.36829   0.54732    |
 |    60    0.00000   0.87500   0.37500   |   -1.91561   1.09463   0.82098    |
 |    61    0.00000   0.87500   0.50000   |   -1.91561   0.82098   1.09463    |
 |    62    0.00000   0.87500   0.62500   |   -1.91561   0.54732   1.36829    |
 |    63    0.00000   0.87500   0.75000   |   -1.91561   0.27366   1.64195    |
 |    64    0.00000   0.87500   0.87500   |   -1.91561   0.00000   1.91561    |
 |    65    0.12500   0.00000   0.00000   |    0.27366   0.00000   0.27366    |
 |    66    0.12500   0.00000   0.12500   |    0.27366  -0.27366   0.54732    |
 |    67    0.12500   0.00000   0.25000   |    0.27366  -0.54732   0.82098    |
 |    68    0.12500   0.00000   0.37500   |    0.27366  -0.82098   1.09463    |
 |    69    0.12500   0.00000   0.50000   |    0.27366  -1.09463   1.36829    |
 |    70    0.12500   0.00000   0.62500   |    0.27366  -1.36829   1.64195    |
 |    71    0.12500   0.00000   0.75000   |    0.27366  -1.64195   1.91561    |
 |    72    0.12500   0.00000   0.87500   |    0.27366  -1.91561   2.18927    |
 |    73    0.12500   0.12500   0.00000   |    0.00000   0.27366   0.27366    |
 |    74    0.12500   0.12500   0.12500   |    0.00000   0.00000   0.54732    |
 |    75    0.12500   0.12500   0.25000   |    0.00000  -0.27366   0.82098    |
 |    76    0.12500   0.12500   0.37500   |    0.00000  -0.54732   1.09463    |
 |    77    0.12500   0.12500   0.50000   |    0.00000  -0.82098   1.36829    |
 |    78    0.12500   0.12500   0.62500   |    0.00000  -1.09463   1.64195    |
 |    79    0.12500   0.12500   0.75000   |    0.00000  -1.36829   1.91561    |
 |    80    0.12500   0.12500   0.87500   |    0.00000  -1.64195   2.18927    |
 |    81    0.12500   0.25000   0.00000   |   -0.27366   0.54732   0.27366    |
 |    82    0.12500   0.25000   0.12500   |   -0.27366   0.27366   0.54732    |
 |    83    0.12500   0.25000   0.25000   |   -0.27366   0.00000   0.82098    |
 |    84    0.12500   0.25000   0.37500   |   -0.27366  -0.27366   1.09463    |
 |    85    0.12500   0.25000   0.50000   |   -0.27366  -0.54732   1.36829    |
 |    86    0.12500   0.25000   0.62500   |   -0.27366  -0.82098   1.64195    |
 |    87    0.12500   0.25000   0.75000   |   -0.27366  -1.09463   1.91561    |
 |    88    0.12500   0.25000   0.87500   |   -0.27366  -1.36829   2.18927    |
 |    89    0.12500   0.37500   0.00000   |   -0.54732   0.82098   0.27366    |
 |    90    0.12500   0.37500   0.12500   |   -0.54732   0.54732   0.54732    |
 |    91    0.12500   0.37500   0.25000   |   -0.54732   0.27366   0.82098    |
 |    92    0.12500   0.37500   0.37500   |   -0.54732   0.00000   1.09463    |
 |    93    0.12500   0.37500   0.50000   |   -0.54732  -0.27366   1.36829    |
 |    94    0.12500   0.37500   0.62500   |   -0.54732  -0.54732   1.64195    |
 |    95    0.12500   0.37500   0.75000   |   -0.54732  -0.82098   1.91561    |
 |    96    0.12500   0.37500   0.87500   |   -0.54732  -1.09463   2.18927    |
 |    97    0.12500   0.50000   0.00000   |   -0.82098   1.09463   0.27366    |
 |    98    0.12500   0.50000   0.12500   |   -0.82098   0.82098   0.54732    |
 |    99    0.12500   0.50000   0.25000   |   -0.82098   0.54732   0.82098    |
 |   100    0.12500   0.50000   0.37500   |   -0.82098   0.27366   1.09463    |
 |   101    0.12500   0.50000   0.50000   |   -0.82098   0.00000   1.36829    |
 |   102    0.12500   0.50000   0.62500   |   -0.82098  -0.27366   1.64195    |
 |   103    0.12500   0.50000   0.75000   |   -0.82098  -0.54732   1.91561    |
 |   104    0.12500   0.50000   0.87500   |   -0.82098  -0.82098   2.18927    |
 |   105    0.12500   0.62500   0.00000   |   -1.09463   1.36829   0.27366    |
 |   106    0.12500   0.62500   0.12500   |   -1.09463   1.09463   0.54732    |
 |   107    0.12500   0.62500   0.25000   |   -1.09463   0.82098   0.82098    |
 |   108    0.12500   0.62500   0.37500   |   -1.09463   0.54732   1.09463    |
 |   109    0.12500   0.62500   0.50000   |   -1.09463   0.27366   1.36829    |
 |   110    0.12500   0.62500   0.62500   |   -1.09463   0.00000   1.64195    |
 |   111    0.12500   0.62500   0.75000   |   -1.09463  -0.27366   1.91561    |
 |   112    0.12500   0.62500   0.87500   |   -1.09463  -0.54732   2.18927    |
 |   113    0.12500   0.75000   0.00000   |   -1.36829   1.64195   0.27366    |
 |   114    0.12500   0.75000   0.12500   |   -1.36829   1.36829   0.54732    |
 |   115    0.12500   0.75000   0.25000   |   -1.36829   1.09463   0.82098    |
 |   116    0.12500   0.75000   0.37500   |   -1.36829   0.82098   1.09463    |
 |   117    0.12500   0.75000   0.50000   |   -1.36829   0.54732   1.36829    |
 |   118    0.12500   0.75000   0.62500   |   -1.36829   0.27366   1.64195    |
 |   119    0.12500   0.75000   0.75000   |   -1.36829   0.00000   1.91561    |
 |   120    0.12500   0.75000   0.87500   |   -1.36829  -0.27366   2.18927    |
 |   121    0.12500   0.87500   0.00000   |   -1.64195   1.91561   0.27366    |
 |   122    0.12500   0.87500   0.12500   |   -1.64195   1.64195   0.54732    |
 |   123    0.12500   0.87500   0.25000   |   -1.64195   1.36829   0.82098    |
 |   124    0.12500   0.87500   0.37500   |   -1.64195   1.09463   1.09463    |
 |   125    0.12500   0.87500   0.50000   |   -1.64195   0.82098   1.36829    |
 |   126    0.12500   0.87500   0.62500   |   -1.64195   0.54732   1.64195    |
 |   127    0.12500   0.87500   0.75000   |   -1.64195   0.27366   1.91561    |
 |   128    0.12500   0.87500   0.87500   |   -1.64195   0.00000   2.18927    |
 |   129    0.25000   0.00000   0.00000   |    0.54732   0.00000   0.54732    |
 |   130    0.25000   0.00000   0.12500   |    0.54732  -0.27366   0.82098    |
 |   131    0.25000   0.00000   0.25000   |    0.54732  -0.54732   1.09463    |
 |   132    0.25000   0.00000   0.37500   |    0.54732  -0.82098   1.36829    |
 |   133    0.25000   0.00000   0.50000   |    0.54732  -1.09463   1.64195    |
 |   134    0.25000   0.00000   0.62500   |    0.54732  -1.36829   1.91561    |
 |   135    0.25000   0.00000   0.75000   |    0.54732  -1.64195   2.18927    |
 |   136    0.25000   0.00000   0.87500   |    0.54732  -1.91561   2.46293    |
 |   137    0.25000   0.12500   0.00000   |    0.27366   0.27366   0.54732    |
 |   138    0.25000   0.12500   0.12500   |    0.27366   0.00000   0.82098    |
 |   139    0.25000   0.12500   0.25000   |    0.27366  -0.27366   1.09463    |
 |   140    0.25000   0.12500   0.37500   |    0.27366  -0.54732   1.36829    |
 |   141    0.25000   0.12500   0.50000   |    0.27366  -0.82098   1.64195    |
 |   142    0.25000   0.12500   0.62500   |    0.27366  -1.09463   1.91561    |
 |   143    0.25000   0.12500   0.75000   |    0.27366  -1.36829   2.18927    |
 |   144    0.25000   0.12500   0.87500   |    0.27366  -1.64195   2.46293    |
 |   145    0.25000   0.25000   0.00000   |    0.00000   0.54732   0.54732    |
 |   146    0.25000   0.25000   0.12500   |    0.00000   0.27366   0.82098    |
 |   147    0.25000   0.25000   0.25000   |    0.00000   0.00000   1.09463    |
 |   148    0.25000   0.25000   0.37500   |    0.00000  -0.27366   1.36829    |
 |   149    0.25000   0.25000   0.50000   |    0.00000  -0.54732   1.64195    |
 |   150    0.25000   0.25000   0.62500   |    0.00000  -0.82098   1.91561    |
 |   151    0.25000   0.25000   0.75000   |    0.00000  -1.09463   2.18927    |
 |   152    0.25000   0.25000   0.87500   |    0.00000  -1.36829   2.46293    |
 |   153    0.25000   0.37500   0.00000   |   -0.27366   0.82098   0.54732    |
 |   154    0.25000   0.37500   0.12500   |   -0.27366   0.54732   0.82098    |
 |   155    0.25000   0.37500   0.25000   |   -0.27366   0.27366   1.09463    |
 |   156    0.25000   0.37500   0.37500   |   -0.27366   0.00000   1.36829    |
 |   157    0.25000   0.37500   0.50000   |   -0.27366  -0.27366   1.64195    |
 |   158    0.25000   0.37500   0.62500   |   -0.27366  -0.54732   1.91561    |
 |   159    0.25000   0.37500   0.75000   |   -0.27366  -0.82098   2.18927    |
 |   160    0.25000   0.37500   0.87500   |   -0.27366  -1.09463   2.46293    |
 |   161    0.25000   0.50000   0.00000   |   -0.54732   1.09463   0.54732    |
 |   162    0.25000   0.50000   0.12500   |   -0.54732   0.82098   0.82098    |
 |   163    0.25000   0.50000   0.25000   |   -0.54732   0.54732   1.09463    |
 |   164    0.25000   0.50000   0.37500   |   -0.54732   0.27366   1.36829    |
 |   165    0.25000   0.50000   0.50000   |   -0.54732   0.00000   1.64195    |
 |   166    0.25000   0.50000   0.62500   |   -0.54732  -0.27366   1.91561    |
 |   167    0.25000   0.50000   0.75000   |   -0.54732  -0.54732   2.18927    |
 |   168    0.25000   0.50000   0.87500   |   -0.54732  -0.82098   2.46293    |
 |   169    0.25000   0.62500   0.00000   |   -0.82098   1.36829   0.54732    |
 |   170    0.25000   0.62500   0.12500   |   -0.82098   1.09463   0.82098    |
 |   171    0.25000   0.62500   0.25000   |   -0.82098   0.82098   1.09463    |
 |   172    0.25000   0.62500   0.37500   |   -0.82098   0.54732   1.36829    |
 |   173    0.25000   0.62500   0.50000   |   -0.82098   0.27366   1.64195    |
 |   174    0.25000   0.62500   0.62500   |   -0.82098   0.00000   1.91561    |
 |   175    0.25000   0.62500   0.75000   |   -0.82098  -0.27366   2.18927    |
 |   176    0.25000   0.62500   0.87500   |   -0.82098  -0.54732   2.46293    |
 |   177    0.25000   0.75000   0.00000   |   -1.09463   1.64195   0.54732    |
 |   178    0.25000   0.75000   0.12500   |   -1.09463   1.36829   0.82098    |
 |   179    0.25000   0.75000   0.25000   |   -1.09463   1.09463   1.09463    |
 |   180    0.25000   0.75000   0.37500   |   -1.09463   0.82098   1.36829    |
 |   181    0.25000   0.75000   0.50000   |   -1.09463   0.54732   1.64195    |
 |   182    0.25000   0.75000   0.62500   |   -1.09463   0.27366   1.91561    |
 |   183    0.25000   0.75000   0.75000   |   -1.09463   0.00000   2.18927    |
 |   184    0.25000   0.75000   0.87500   |   -1.09463  -0.27366   2.46293    |
 |   185    0.25000   0.87500   0.00000   |   -1.36829   1.91561   0.54732    |
 |   186    0.25000   0.87500   0.12500   |   -1.36829   1.64195   0.82098    |
 |   187    0.25000   0.87500   0.25000   |   -1.36829   1.36829   1.09463    |
 |   188    0.25000   0.87500   0.37500   |   -1.36829   1.09463   1.36829    |
 |   189    0.25000   0.87500   0.50000   |   -1.36829   0.82098   1.64195    |
 |   190    0.25000   0.87500   0.62500   |   -1.36829   0.54732   1.91561    |
 |   191    0.25000   0.87500   0.75000   |   -1.36829   0.27366   2.18927    |
 |   192    0.25000   0.87500   0.87500   |   -1.36829   0.00000   2.46293    |
 |   193    0.37500   0.00000   0.00000   |    0.82098   0.00000   0.82098    |
 |   194    0.37500   0.00000   0.12500   |    0.82098  -0.27366   1.09463    |
 |   195    0.37500   0.00000   0.25000   |    0.82098  -0.54732   1.36829    |
 |   196    0.37500   0.00000   0.37500   |    0.82098  -0.82098   1.64195    |
 |   197    0.37500   0.00000   0.50000   |    0.82098  -1.09463   1.91561    |
 |   198    0.37500   0.00000   0.62500   |    0.82098  -1.36829   2.18927    |
 |   199    0.37500   0.00000   0.75000   |    0.82098  -1.64195   2.46293    |
 |   200    0.37500   0.00000   0.87500   |    0.82098  -1.91561   2.73659    |
 |   201    0.37500   0.12500   0.00000   |    0.54732   0.27366   0.82098    |
 |   202    0.37500   0.12500   0.12500   |    0.54732   0.00000   1.09463    |
 |   203    0.37500   0.12500   0.25000   |    0.54732  -0.27366   1.36829    |
 |   204    0.37500   0.12500   0.37500   |    0.54732  -0.54732   1.64195    |
 |   205    0.37500   0.12500   0.50000   |    0.54732  -0.82098   1.91561    |
 |   206    0.37500   0.12500   0.62500   |    0.54732  -1.09463   2.18927    |
 |   207    0.37500   0.12500   0.75000   |    0.54732  -1.36829   2.46293    |
 |   208    0.37500   0.12500   0.87500   |    0.54732  -1.64195   2.73659    |
 |   209    0.37500   0.25000   0.00000   |    0.27366   0.54732   0.82098    |
 |   210    0.37500   0.25000   0.12500   |    0.27366   0.27366   1.09463    |
 |   211    0.37500   0.25000   0.25000   |    0.27366   0.00000   1.36829    |
 |   212    0.37500   0.25000   0.37500   |    0.27366  -0.27366   1.64195    |
 |   213    0.37500   0.25000   0.50000   |    0.27366  -0.54732   1.91561    |
 |   214    0.37500   0.25000   0.62500   |    0.27366  -0.82098   2.18927    |
 |   215    0.37500   0.25000   0.75000   |    0.27366  -1.09463   2.46293    |
 |   216    0.37500   0.25000   0.87500   |    0.27366  -1.36829   2.73659    |
 |   217    0.37500   0.37500   0.00000   |    0.00000   0.82098   0.82098    |
 |   218    0.37500   0.37500   0.12500   |    0.00000   0.54732   1.09463    |
 |   219    0.37500   0.37500   0.25000   |    0.00000   0.27366   1.36829    |
 |   220    0.37500   0.37500   0.37500   |    0.00000   0.00000   1.64195    |
 |   221    0.37500   0.37500   0.50000   |    0.00000  -0.27366   1.91561    |
 |   222    0.37500   0.37500   0.62500   |    0.00000  -0.54732   2.18927    |
 |   223    0.37500   0.37500   0.75000   |    0.00000  -0.82098   2.46293    |
 |   224    0.37500   0.37500   0.87500   |    0.00000  -1.09463   2.73659    |
 |   225    0.37500   0.50000   0.00000   |   -0.27366   1.09463   0.82098    |
 |   226    0.37500   0.50000   0.12500   |   -0.27366   0.82098   1.09463    |
 |   227    0.37500   0.50000   0.25000   |   -0.27366   0.54732   1.36829    |
 |   228    0.37500   0.50000   0.37500   |   -0.27366   0.27366   1.64195    |
 |   229    0.37500   0.50000   0.50000   |   -0.27366   0.00000   1.91561    |
 |   230    0.37500   0.50000   0.62500   |   -0.27366  -0.27366   2.18927    |
 |   231    0.37500   0.50000   0.75000   |   -0.27366  -0.54732   2.46293    |
 |   232    0.37500   0.50000   0.87500   |   -0.27366  -0.82098   2.73659    |
 |   233    0.37500   0.62500   0.00000   |   -0.54732   1.36829   0.82098    |
 |   234    0.37500   0.62500   0.12500   |   -0.54732   1.09463   1.09463    |
 |   235    0.37500   0.62500   0.25000   |   -0.54732   0.82098   1.36829    |
 |   236    0.37500   0.62500   0.37500   |   -0.54732   0.54732   1.64195    |
 |   237    0.37500   0.62500   0.50000   |   -0.54732   0.27366   1.91561    |
 |   238    0.37500   0.62500   0.62500   |   -0.54732   0.00000   2.18927    |
 |   239    0.37500   0.62500   0.75000   |   -0.54732  -0.27366   2.46293    |
 |   240    0.37500   0.62500   0.87500   |   -0.54732  -0.54732   2.73659    |
 |   241    0.37500   0.75000   0.00000   |   -0.82098   1.64195   0.82098    |
 |   242    0.37500   0.75000   0.12500   |   -0.82098   1.36829   1.09463    |
 |   243    0.37500   0.75000   0.25000   |   -0.82098   1.09463   1.36829    |
 |   244    0.37500   0.75000   0.37500   |   -0.82098   0.82098   1.64195    |
 |   245    0.37500   0.75000   0.50000   |   -0.82098   0.54732   1.91561    |
 |   246    0.37500   0.75000   0.62500   |   -0.82098   0.27366   2.18927    |
 |   247    0.37500   0.75000   0.75000   |   -0.82098   0.00000   2.46293    |
 |   248    0.37500   0.75000   0.87500   |   -0.82098  -0.27366   2.73659    |
 |   249    0.37500   0.87500   0.00000   |   -1.09463   1.91561   0.82098    |
 |   250    0.37500   0.87500   0.12500   |   -1.09463   1.64195   1.09463    |
 |   251    0.37500   0.87500   0.25000   |   -1.09463   1.36829   1.36829    |
 |   252    0.37500   0.87500   0.37500   |   -1.09463   1.09463   1.64195    |
 |   253    0.37500   0.87500   0.50000   |   -1.09463   0.82098   1.91561    |
 |   254    0.37500   0.87500   0.62500   |   -1.09463   0.54732   2.18927    |
 |   255    0.37500   0.87500   0.75000   |   -1.09463   0.27366   2.46293    |
 |   256    0.37500   0.87500   0.87500   |   -1.09463   0.00000   2.73659    |
 |   257    0.50000   0.00000   0.00000   |    1.09463   0.00000   1.09463    |
 |   258    0.50000   0.00000   0.12500   |    1.09463  -0.27366   1.36829    |
 |   259    0.50000   0.00000   0.25000   |    1.09463  -0.54732   1.64195    |
 |   260    0.50000   0.00000   0.37500   |    1.09463  -0.82098   1.91561    |
 |   261    0.50000   0.00000   0.50000   |    1.09463  -1.09463   2.18927    |
 |   262    0.50000   0.00000   0.62500   |    1.09463  -1.36829   2.46293    |
 |   263    0.50000   0.00000   0.75000   |    1.09463  -1.64195   2.73659    |
 |   264    0.50000   0.00000   0.87500   |    1.09463  -1.91561   3.01024    |
 |   265    0.50000   0.12500   0.00000   |    0.82098   0.27366   1.09463    |
 |   266    0.50000   0.12500   0.12500   |    0.82098   0.00000   1.36829    |
 |   267    0.50000   0.12500   0.25000   |    0.82098  -0.27366   1.64195    |
 |   268    0.50000   0.12500   0.37500   |    0.82098  -0.54732   1.91561    |
 |   269    0.50000   0.12500   0.50000   |    0.82098  -0.82098   2.18927    |
 |   270    0.50000   0.12500   0.62500   |    0.82098  -1.09463   2.46293    |
 |   271    0.50000   0.12500   0.75000   |    0.82098  -1.36829   2.73659    |
 |   272    0.50000   0.12500   0.87500   |    0.82098  -1.64195   3.01024    |
 |   273    0.50000   0.25000   0.00000   |    0.54732   0.54732   1.09463    |
 |   274    0.50000   0.25000   0.12500   |    0.54732   0.27366   1.36829    |
 |   275    0.50000   0.25000   0.25000   |    0.54732   0.00000   1.64195    |
 |   276    0.50000   0.25000   0.37500   |    0.54732  -0.27366   1.91561    |
 |   277    0.50000   0.25000   0.50000   |    0.54732  -0.54732   2.18927    |
 |   278    0.50000   0.25000   0.62500   |    0.54732  -0.82098   2.46293    |
 |   279    0.50000   0.25000   0.75000   |    0.54732  -1.09463   2.73659    |
 |   280    0.50000   0.25000   0.87500   |    0.54732  -1.36829   3.01024    |
 |   281    0.50000   0.37500   0.00000   |    0.27366   0.82098   1.09463    |
 |   282    0.50000   0.37500   0.12500   |    0.27366   0.54732   1.36829    |
 |   283    0.50000   0.37500   0.25000   |    0.27366   0.27366   1.64195    |
 |   284    0.50000   0.37500   0.37500   |    0.27366   0.00000   1.91561    |
 |   285    0.50000   0.37500   0.50000   |    0.27366  -0.27366   2.18927    |
 |   286    0.50000   0.37500   0.62500   |    0.27366  -0.54732   2.46293    |
 |   287    0.50000   0.37500   0.75000   |    0.27366  -0.82098   2.73659    |
 |   288    0.50000   0.37500   0.87500   |    0.27366  -1.09463   3.01024    |
 |   289    0.50000   0.50000   0.00000   |    0.00000   1.09463   1.09463    |
 |   290    0.50000   0.50000   0.12500   |    0.00000   0.82098   1.36829    |
 |   291    0.50000   0.50000   0.25000   |    0.00000   0.54732   1.64195    |
 |   292    0.50000   0.50000   0.37500   |    0.00000   0.27366   1.91561    |
 |   293    0.50000   0.50000   0.50000   |    0.00000   0.00000   2.18927    |
 |   294    0.50000   0.50000   0.62500   |    0.00000  -0.27366   2.46293    |
 |   295    0.50000   0.50000   0.75000   |    0.00000  -0.54732   2.73659    |
 |   296    0.50000   0.50000   0.87500   |    0.00000  -0.82098   3.01024    |
 |   297    0.50000   0.62500   0.00000   |   -0.27366   1.36829   1.09463    |
 |   298    0.50000   0.62500   0.12500   |   -0.27366   1.09463   1.36829    |
 |   299    0.50000   0.62500   0.25000   |   -0.27366   0.82098   1.64195    |
 |   300    0.50000   0.62500   0.37500   |   -0.27366   0.54732   1.91561    |
 |   301    0.50000   0.62500   0.50000   |   -0.27366   0.27366   2.18927    |
 |   302    0.50000   0.62500   0.62500   |   -0.27366   0.00000   2.46293    |
 |   303    0.50000   0.62500   0.75000   |   -0.27366  -0.27366   2.73659    |
 |   304    0.50000   0.62500   0.87500   |   -0.27366  -0.54732   3.01024    |
 |   305    0.50000   0.75000   0.00000   |   -0.54732   1.64195   1.09463    |
 |   306    0.50000   0.75000   0.12500   |   -0.54732   1.36829   1.36829    |
 |   307    0.50000   0.75000   0.25000   |   -0.54732   1.09463   1.64195    |
 |   308    0.50000   0.75000   0.37500   |   -0.54732   0.82098   1.91561    |
 |   309    0.50000   0.75000   0.50000   |   -0.54732   0.54732   2.18927    |
 |   310    0.50000   0.75000   0.62500   |   -0.54732   0.27366   2.46293    |
 |   311    0.50000   0.75000   0.75000   |   -0.54732   0.00000   2.73659    |
 |   312    0.50000   0.75000   0.87500   |   -0.54732  -0.27366   3.01024    |
 |   313    0.50000   0.87500   0.00000   |   -0.82098   1.91561   1.09463    |
 |   314    0.50000   0.87500   0.12500   |   -0.82098   1.64195   1.36829    |
 |   315    0.50000   0.87500   0.25000   |   -0.82098   1.36829   1.64195    |
 |   316    0.50000   0.87500   0.37500   |   -0.82098   1.09463   1.91561    |
 |   317    0.50000   0.87500   0.50000   |   -0.82098   0.82098   2.18927    |
 |   318    0.50000   0.87500   0.62500   |   -0.82098   0.54732   2.46293    |
 |   319    0.50000   0.87500   0.75000   |   -0.82098   0.27366   2.73659    |
 |   320    0.50000   0.87500   0.87500   |   -0.82098   0.00000   3.01024    |
 |   321    0.62500   0.00000   0.00000   |    1.36829   0.00000   1.36829    |
 |   322    0.62500   0.00000   0.12500   |    1.36829  -0.27366   1.64195    |
 |   323    0.62500   0.00000   0.25000   |    1.36829  -0.54732   1.91561    |
 |   324    0.62500   0.00000   0.37500   |    1.36829  -0.82098   2.18927    |
 |   325    0.62500   0.00000   0.50000   |    1.36829  -1.09463   2.46293    |
 |   326    0.62500   0.00000   0.62500   |    1.36829  -1.36829   2.73659    |
 |   327    0.62500   0.00000   0.75000   |    1.36829  -1.64195   3.01024    |
 |   328    0.62500   0.00000   0.87500   |    1.36829  -1.91561   3.28390    |
 |   329    0.62500   0.12500   0.00000   |    1.09463   0.27366   1.36829    |
 |   330    0.62500   0.12500   0.12500   |    1.09463   0.00000   1.64195    |
 |   331    0.62500   0.12500   0.25000   |    1.09463  -0.27366   1.91561    |
 |   332    0.62500   0.12500   0.37500   |    1.09463  -0.54732   2.18927    |
 |   333    0.62500   0.12500   0.50000   |    1.09463  -0.82098   2.46293    |
 |   334    0.62500   0.12500   0.62500   |    1.09463  -1.09463   2.73659    |
 |   335    0.62500   0.12500   0.75000   |    1.09463  -1.36829   3.01024    |
 |   336    0.62500   0.12500   0.87500   |    1.09463  -1.64195   3.28390    |
 |   337    0.62500   0.25000   0.00000   |    0.82098   0.54732   1.36829    |
 |   338    0.62500   0.25000   0.12500   |    0.82098   0.27366   1.64195    |
 |   339    0.62500   0.25000   0.25000   |    0.82098   0.00000   1.91561    |
 |   340    0.62500   0.25000   0.37500   |    0.82098  -0.27366   2.18927    |
 |   341    0.62500   0.25000   0.50000   |    0.82098  -0.54732   2.46293    |
 |   342    0.62500   0.25000   0.62500   |    0.82098  -0.82098   2.73659    |
 |   343    0.62500   0.25000   0.75000   |    0.82098  -1.09463   3.01024    |
 |   344    0.62500   0.25000   0.87500   |    0.82098  -1.36829   3.28390    |
 |   345    0.62500   0.37500   0.00000   |    0.54732   0.82098   1.36829    |
 |   346    0.62500   0.37500   0.12500   |    0.54732   0.54732   1.64195    |
 |   347    0.62500   0.37500   0.25000   |    0.54732   0.27366   1.91561    |
 |   348    0.62500   0.37500   0.37500   |    0.54732   0.00000   2.18927    |
 |   349    0.62500   0.37500   0.50000   |    0.54732  -0.27366   2.46293    |
 |   350    0.62500   0.37500   0.62500   |    0.54732  -0.54732   2.73659    |
 |   351    0.62500   0.37500   0.75000   |    0.54732  -0.82098   3.01024    |
 |   352    0.62500   0.37500   0.87500   |    0.54732  -1.09463   3.28390    |
 |   353    0.62500   0.50000   0.00000   |    0.27366   1.09463   1.36829    |
 |   354    0.62500   0.50000   0.12500   |    0.27366   0.82098   1.64195    |
 |   355    0.62500   0.50000   0.25000   |    0.27366   0.54732   1.91561    |
 |   356    0.62500   0.50000   0.37500   |    0.27366   0.27366   2.18927    |
 |   357    0.62500   0.50000   0.50000   |    0.27366   0.00000   2.46293    |
 |   358    0.62500   0.50000   0.62500   |    0.27366  -0.27366   2.73659    |
 |   359    0.62500   0.50000   0.75000   |    0.27366  -0.54732   3.01024    |
 |   360    0.62500   0.50000   0.87500   |    0.27366  -0.82098   3.28390    |
 |   361    0.62500   0.62500   0.00000   |    0.00000   1.36829   1.36829    |
 |   362    0.62500   0.62500   0.12500   |    0.00000   1.09463   1.64195    |
 |   363    0.62500   0.62500   0.25000   |    0.00000   0.82098   1.91561    |
 |   364    0.62500   0.62500   0.37500   |    0.00000   0.54732   2.18927    |
 |   365    0.62500   0.62500   0.50000   |    0.00000   0.27366   2.46293    |
 |   366    0.62500   0.62500   0.62500   |    0.00000   0.00000   2.73659    |
 |   367    0.62500   0.62500   0.75000   |    0.00000  -0.27366   3.01024    |
 |   368    0.62500   0.62500   0.87500   |    0.00000  -0.54732   3.28390    |
 |   369    0.62500   0.75000   0.00000   |   -0.27366   1.64195   1.36829    |
 |   370    0.62500   0.75000   0.12500   |   -0.27366   1.36829   1.64195    |
 |   371    0.62500   0.75000   0.25000   |   -0.27366   1.09463   1.91561    |
 |   372    0.62500   0.75000   0.37500   |   -0.27366   0.82098   2.18927    |
 |   373    0.62500   0.75000   0.50000   |   -0.27366   0.54732   2.46293    |
 |   374    0.62500   0.75000   0.62500   |   -0.27366   0.27366   2.73659    |
 |   375    0.62500   0.75000   0.75000   |   -0.27366   0.00000   3.01024    |
 |   376    0.62500   0.75000   0.87500   |   -0.27366  -0.27366   3.28390    |
 |   377    0.62500   0.87500   0.00000   |   -0.54732   1.91561   1.36829    |
 |   378    0.62500   0.87500   0.12500   |   -0.54732   1.64195   1.64195    |
 |   379    0.62500   0.87500   0.25000   |   -0.54732   1.36829   1.91561    |
 |   380    0.62500   0.87500   0.37500   |   -0.54732   1.09463   2.18927    |
 |   381    0.62500   0.87500   0.50000   |   -0.54732   0.82098   2.46293    |
 |   382    0.62500   0.87500   0.62500   |   -0.54732   0.54732   2.73659    |
 |   383    0.62500   0.87500   0.75000   |   -0.54732   0.27366   3.01024    |
 |   384    0.62500   0.87500   0.87500   |   -0.54732   0.00000   3.28390    |
 |   385    0.75000   0.00000   0.00000   |    1.64195   0.00000   1.64195    |
 |   386    0.75000   0.00000   0.12500   |    1.64195  -0.27366   1.91561    |
 |   387    0.75000   0.00000   0.25000   |    1.64195  -0.54732   2.18927    |
 |   388    0.75000   0.00000   0.37500   |    1.64195  -0.82098   2.46293    |
 |   389    0.75000   0.00000   0.50000   |    1.64195  -1.09463   2.73659    |
 |   390    0.75000   0.00000   0.62500   |    1.64195  -1.36829   3.01024    |
 |   391    0.75000   0.00000   0.75000   |    1.64195  -1.64195   3.28390    |
 |   392    0.75000   0.00000   0.87500   |    1.64195  -1.91561   3.55756    |
 |   393    0.75000   0.12500   0.00000   |    1.36829   0.27366   1.64195    |
 |   394    0.75000   0.12500   0.12500   |    1.36829   0.00000   1.91561    |
 |   395    0.75000   0.12500   0.25000   |    1.36829  -0.27366   2.18927    |
 |   396    0.75000   0.12500   0.37500   |    1.36829  -0.54732   2.46293    |
 |   397    0.75000   0.12500   0.50000   |    1.36829  -0.82098   2.73659    |
 |   398    0.75000   0.12500   0.62500   |    1.36829  -1.09463   3.01024    |
 |   399    0.75000   0.12500   0.75000   |    1.36829  -1.36829   3.28390    |
 |   400    0.75000   0.12500   0.87500   |    1.36829  -1.64195   3.55756    |
 |   401    0.75000   0.25000   0.00000   |    1.09463   0.54732   1.64195    |
 |   402    0.75000   0.25000   0.12500   |    1.09463   0.27366   1.91561    |
 |   403    0.75000   0.25000   0.25000   |    1.09463   0.00000   2.18927    |
 |   404    0.75000   0.25000   0.37500   |    1.09463  -0.27366   2.46293    |
 |   405    0.75000   0.25000   0.50000   |    1.09463  -0.54732   2.73659    |
 |   406    0.75000   0.25000   0.62500   |    1.09463  -0.82098   3.01024    |
 |   407    0.75000   0.25000   0.75000   |    1.09463  -1.09463   3.28390    |
 |   408    0.75000   0.25000   0.87500   |    1.09463  -1.36829   3.55756    |
 |   409    0.75000   0.37500   0.00000   |    0.82098   0.82098   1.64195    |
 |   410    0.75000   0.37500   0.12500   |    0.82098   0.54732   1.91561    |
 |   411    0.75000   0.37500   0.25000   |    0.82098   0.27366   2.18927    |
 |   412    0.75000   0.37500   0.37500   |    0.82098   0.00000   2.46293    |
 |   413    0.75000   0.37500   0.50000   |    0.82098  -0.27366   2.73659    |
 |   414    0.75000   0.37500   0.62500   |    0.82098  -0.54732   3.01024    |
 |   415    0.75000   0.37500   0.75000   |    0.82098  -0.82098   3.28390    |
 |   416    0.75000   0.37500   0.87500   |    0.82098  -1.09463   3.55756    |
 |   417    0.75000   0.50000   0.00000   |    0.54732   1.09463   1.64195    |
 |   418    0.75000   0.50000   0.12500   |    0.54732   0.82098   1.91561    |
 |   419    0.75000   0.50000   0.25000   |    0.54732   0.54732   2.18927    |
 |   420    0.75000   0.50000   0.37500   |    0.54732   0.27366   2.46293    |
 |   421    0.75000   0.50000   0.50000   |    0.54732   0.00000   2.73659    |
 |   422    0.75000   0.50000   0.62500   |    0.54732  -0.27366   3.01024    |
 |   423    0.75000   0.50000   0.75000   |    0.54732  -0.54732   3.28390    |
 |   424    0.75000   0.50000   0.87500   |    0.54732  -0.82098   3.55756    |
 |   425    0.75000   0.62500   0.00000   |    0.27366   1.36829   1.64195    |
 |   426    0.75000   0.62500   0.12500   |    0.27366   1.09463   1.91561    |
 |   427    0.75000   0.62500   0.25000   |    0.27366   0.82098   2.18927    |
 |   428    0.75000   0.62500   0.37500   |    0.27366   0.54732   2.46293    |
 |   429    0.75000   0.62500   0.50000   |    0.27366   0.27366   2.73659    |
 |   430    0.75000   0.62500   0.62500   |    0.27366   0.00000   3.01024    |
 |   431    0.75000   0.62500   0.75000   |    0.27366  -0.27366   3.28390    |
 |   432    0.75000   0.62500   0.87500   |    0.27366  -0.54732   3.55756    |
 |   433    0.75000   0.75000   0.00000   |    0.00000   1.64195   1.64195    |
 |   434    0.75000   0.75000   0.12500   |    0.00000   1.36829   1.91561    |
 |   435    0.75000   0.75000   0.25000   |    0.00000   1.09463   2.18927    |
 |   436    0.75000   0.75000   0.37500   |    0.00000   0.82098   2.46293    |
 |   437    0.75000   0.75000   0.50000   |    0.00000   0.54732   2.73659    |
 |   438    0.75000   0.75000   0.62500   |    0.00000   0.27366   3.01024    |
 |   439    0.75000   0.75000   0.75000   |    0.00000   0.00000   3.28390    |
 |   440    0.75000   0.75000   0.87500   |    0.00000  -0.27366   3.55756    |
 |   441    0.75000   0.87500   0.00000   |   -0.27366   1.91561   1.64195    |
 |   442    0.75000   0.87500   0.12500   |   -0.27366   1.64195   1.91561    |
 |   443    0.75000   0.87500   0.25000   |   -0.27366   1.36829   2.18927    |
 |   444    0.75000   0.87500   0.37500   |   -0.27366   1.09463   2.46293    |
 |   445    0.75000   0.87500   0.50000   |   -0.27366   0.82098   2.73659    |
 |   446    0.75000   0.87500   0.62500   |   -0.27366   0.54732   3.01024    |
 |   447    0.75000   0.87500   0.75000   |   -0.27366   0.27366   3.28390    |
 |   448    0.75000   0.87500   0.87500   |   -0.27366   0.00000   3.55756    |
 |   449    0.87500   0.00000   0.00000   |    1.91561   0.00000   1.91561    |
 |   450    0.87500   0.00000   0.12500   |    1.91561  -0.27366   2.18927    |
 |   451    0.87500   0.00000   0.25000   |    1.91561  -0.54732   2.46293    |
 |   452    0.87500   0.00000   0.37500   |    1.91561  -0.82098   2.73659    |
 |   453    0.87500   0.00000   0.50000   |    1.91561  -1.09463   3.01024    |
 |   454    0.87500   0.00000   0.62500   |    1.91561  -1.36829   3.28390    |
 |   455    0.87500   0.00000   0.75000   |    1.91561  -1.64195   3.55756    |
 |   456    0.87500   0.00000   0.87500   |    1.91561  -1.91561   3.83122    |
 |   457    0.87500   0.12500   0.00000   |    1.64195   0.27366   1.91561    |
 |   458    0.87500   0.12500   0.12500   |    1.64195   0.00000   2.18927    |
 |   459    0.87500   0.12500   0.25000   |    1.64195  -0.27366   2.46293    |
 |   460    0.87500   0.12500   0.37500   |    1.64195  -0.54732   2.73659    |
 |   461    0.87500   0.12500   0.50000   |    1.64195  -0.82098   3.01024    |
 |   462    0.87500   0.12500   0.62500   |    1.64195  -1.09463   3.28390    |
 |   463    0.87500   0.12500   0.75000   |    1.64195  -1.36829   3.55756    |
 |   464    0.87500   0.12500   0.87500   |    1.64195  -1.64195   3.83122    |
 |   465    0.87500   0.25000   0.00000   |    1.36829   0.54732   1.91561    |
 |   466    0.87500   0.25000   0.12500   |    1.36829   0.27366   2.18927    |
 |   467    0.87500   0.25000   0.25000   |    1.36829   0.00000   2.46293    |
 |   468    0.87500   0.25000   0.37500   |    1.36829  -0.27366   2.73659    |
 |   469    0.87500   0.25000   0.50000   |    1.36829  -0.54732   3.01024    |
 |   470    0.87500   0.25000   0.62500   |    1.36829  -0.82098   3.28390    |
 |   471    0.87500   0.25000   0.75000   |    1.36829  -1.09463   3.55756    |
 |   472    0.87500   0.25000   0.87500   |    1.36829  -1.36829   3.83122    |
 |   473    0.87500   0.37500   0.00000   |    1.09463   0.82098   1.91561    |
 |   474    0.87500   0.37500   0.12500   |    1.09463   0.54732   2.18927    |
 |   475    0.87500   0.37500   0.25000   |    1.09463   0.27366   2.46293    |
 |   476    0.87500   0.37500   0.37500   |    1.09463   0.00000   2.73659    |
 |   477    0.87500   0.37500   0.50000   |    1.09463  -0.27366   3.01024    |
 |   478    0.87500   0.37500   0.62500   |    1.09463  -0.54732   3.28390    |
 |   479    0.87500   0.37500   0.75000   |    1.09463  -0.82098   3.55756    |
 |   480    0.87500   0.37500   0.87500   |    1.09463  -1.09463   3.83122    |
 |   481    0.87500   0.50000   0.00000   |    0.82098   1.09463   1.91561    |
 |   482    0.87500   0.50000   0.12500   |    0.82098   0.82098   2.18927    |
 |   483    0.87500   0.50000   0.25000   |    0.82098   0.54732   2.46293    |
 |   484    0.87500   0.50000   0.37500   |    0.82098   0.27366   2.73659    |
 |   485    0.87500   0.50000   0.50000   |    0.82098   0.00000   3.01024    |
 |   486    0.87500   0.50000   0.62500   |    0.82098  -0.27366   3.28390    |
 |   487    0.87500   0.50000   0.75000   |    0.82098  -0.54732   3.55756    |
 |   488    0.87500   0.50000   0.87500   |    0.82098  -0.82098   3.83122    |
 |   489    0.87500   0.62500   0.00000   |    0.54732   1.36829   1.91561    |
 |   490    0.87500   0.62500   0.12500   |    0.54732   1.09463   2.18927    |
 |   491    0.87500   0.62500   0.25000   |    0.54732   0.82098   2.46293    |
 |   492    0.87500   0.62500   0.37500   |    0.54732   0.54732   2.73659    |
 |   493    0.87500   0.62500   0.50000   |    0.54732   0.27366   3.01024    |
 |   494    0.87500   0.62500   0.62500   |    0.54732   0.00000   3.28390    |
 |   495    0.87500   0.62500   0.75000   |    0.54732  -0.27366   3.55756    |
 |   496    0.87500   0.62500   0.87500   |    0.54732  -0.54732   3.83122    |
 |   497    0.87500   0.75000   0.00000   |    0.27366   1.64195   1.91561    |
 |   498    0.87500   0.75000   0.12500   |    0.27366   1.36829   2.18927    |
 |   499    0.87500   0.75000   0.25000   |    0.27366   1.09463   2.46293    |
 |   500    0.87500   0.75000   0.37500   |    0.27366   0.82098   2.73659    |
 |   501    0.87500   0.75000   0.50000   |    0.27366   0.54732   3.01024    |
 |   502    0.87500   0.75000   0.62500   |    0.27366   0.27366   3.28390    |
 |   503    0.87500   0.75000   0.75000   |    0.27366   0.00000   3.55756    |
 |   504    0.87500   0.75000   0.87500   |    0.27366  -0.27366   3.83122    |
 |   505    0.87500   0.87500   0.00000   |    0.00000   1.91561   1.91561    |
 |   506    0.87500   0.87500   0.12500   |    0.00000   1.64195   2.18927    |
 |   507    0.87500   0.87500   0.25000   |    0.00000   1.36829   2.46293    |
 |   508    0.87500   0.87500   0.37500   |    0.00000   1.09463   2.73659    |
 |   509    0.87500   0.87500   0.50000   |    0.00000   0.82098   3.01024    |
 |   510    0.87500   0.87500   0.62500   |    0.00000   0.54732   3.28390    |
 |   511    0.87500   0.87500   0.75000   |    0.00000   0.27366   3.55756    |
 |   512    0.87500   0.87500   0.87500   |    0.00000   0.00000   3.83122    |
 *----------------------------------------------------------------------------*
  
  
 *---------------------------------- MAIN ------------------------------------*
 |  Number of Wannier Functions               :                18             |
 |  Number of Objective Wannier Functions     :                18             |
 |  Number of input Bloch states              :                28             |
 |  Output verbosity (1=low, 5=high)          :                 2             |
 |  Timing Level (1=low, 5=high)              :                 1             |
 |  Optimisation (0=memory, 3=speed)          :                 3             |
 |  Length Unit                               :               Ang             |
 |  Post-processing setup (write *.nnkp)      :                 F             |
 |  Using Gamma-only branch of algorithms     :                 F             |
 *----------------------------------------------------------------------------*
 *------------------------------- WANNIERISE ---------------------------------*
 |  Total number of iterations                :                50             |
 |  Number of CG steps before reset           :                 5             |
 |  Trial step length for line search         :             2.000             |
 |  Convergence tolerence                     :         0.100E-09             |
 |  Convergence window                        :                -1             |
 |  Iterations between writing output         :                 1             |
 |  Iterations between backing up to disk     :               100             |
 |  Write r^2_nm to file                      :                 F             |
 |  Write xyz WF centres to file              :                 F             |
 |  Write on-site energies <0n|H|0n> to file  :                 F             |
 |  Use guiding centre to control phases      :                 F             |
 |  Use phases for initial projections        :                 F             |
 *----------------------------------------------------------------------------*
 *------------------------------- DISENTANGLE --------------------------------*
 |  Using band disentanglement                :                 T             |
 |  Total number of iterations                :               500             |
 |  Mixing ratio                              :             1.000             |
 |  Convergence tolerence                     :         1.000E-10             |
 |  Convergence window                        :                 3             |
 *----------------------------------------------------------------------------*
 *-------------------------------- PLOTTING ----------------------------------*
 |  Plotting interpolated bandstructure       :                 T             |
 |   Number of K-path sections                :                 1             |
 |   Divisions along first K-path section     :               100             |
 |   Output format                            :           gnuplot             |
 |   Output mode                              :               s-k             |
 *----------------------------------------------------------------------------*
 |   K-space path sections:                                                   |
 |    From: G       0.000  0.000  0.000     To: G       0.000  0.000  0.000   |
 *----------------------------------------------------------------------------*
 Time to read parameters        0.084 (sec)

 *---------------------------------- K-MESH ----------------------------------*
 +----------------------------------------------------------------------------+
 |                    Distance to Nearest-Neighbour Shells                    |
 |                    ------------------------------------                    |
 |          Shell             Distance (Ang^-1)          Multiplicity         |
 |          -----             -----------------          ------------         |
 |             1                   0.387012                     12            |
 |             2                   0.547317                      6            |
 |             3                   0.670324                     24            |
 |             4                   0.774023                     12            |
 |             5                   0.865384                     24            |
 |             6                   0.947981                      8            |
 |             7                   1.023937                     48            |
 |             8                   1.094634                      6            |
 |             9                   1.161035                     36            |
 |            10                   1.223838                     24            |
 |            11                   1.283573                     24            |
 |            12                   1.340648                     24            |
 |            13                   1.395391                     72            |
 |            14                   1.498890                     48            |
 |            15                   1.548047                     12            |
 |            16                   1.595690                     48            |
 |            17                   1.641952                     30            |
 |            18                   1.686945                     72            |
 |            19                   1.730769                     24            |
 |            20                   1.773510                     48            |
 |            21                   1.815246                     24            |
 |            22                   1.856043                     48            |
 |            23                   1.895962                      8            |
 |            24                   1.935059                     84            |
 |            25                   1.973380                     24            |
 |            26                   2.010972                     96            |
 |            27                   2.047873                     48            |
 |            28                   2.084122                     24            |
 |            29                   2.154790                     96            |
 |            30                   2.189269                      6            |
 |            31                   2.223213                     96            |
 |            32                   2.256647                     48            |
 |            33                   2.289592                     48            |
 |            34                   2.322070                     36            |
 |            35                   2.354100                    120            |
 |            36                   2.385700                     24            |
 +----------------------------------------------------------------------------+
 | The b-vectors are chosen automatically                                     |
 | Shell:  1 w_b    1.6691363      (Ang^2)                                    |
 | The following shells are used:   1                                         |
 +----------------------------------------------------------------------------+
 |                        Shell   # Nearest-Neighbours                        |
 |                        -----   --------------------                        |
 |                          1              12                                 |
 +----------------------------------------------------------------------------+
 | Completeness relation is fully satisfied [Eq. (B1), PRB 56, 12847 (1997)]  |
 +----------------------------------------------------------------------------+
 |                  b_k Vectors (Ang^-1) and Weights (Ang^2)                  |
 |                  ----------------------------------------                  |
 |            No.         b_k(x)      b_k(y)      b_k(z)        w_b           |
 |            ---        --------------------------------     --------        |
 |             1         0.000000   -0.273659    0.273659     1.669136        |
 |             2        -0.273659    0.273659    0.000000     1.669136        |
 |             3        -0.273659    0.000000    0.273659     1.669136        |
 |             4         0.273659    0.000000    0.273659     1.669136        |
 |             5         0.000000    0.273659    0.273659     1.669136        |
 |             6         0.000000    0.273659   -0.273659     1.669136        |
 |             7         0.273659    0.273659    0.000000     1.669136        |
 |             8         0.273659   -0.273659    0.000000     1.669136        |
 |             9         0.273659    0.000000   -0.273659     1.669136        |
 |            10        -0.273659    0.000000   -0.273659     1.669136        |
 |            11        -0.273659   -0.273659    0.000000     1.669136        |
 |            12         0.000000   -0.273659   -0.273659     1.669136        |
 +----------------------------------------------------------------------------+
 |                           b_k Directions (Ang^-1)                          |
 |                           -----------------------                          |
 |            No.           x           y           z                         |
 |            ---        --------------------------------                     |
 |             1         0.000000   -0.273659    0.273659                     |
 |             2        -0.273659    0.273659    0.000000                     |
 |             3        -0.273659    0.000000    0.273659                     |
 |             4         0.273659    0.000000    0.273659                     |
 |             5         0.000000    0.273659    0.273659                     |
 |             6         0.273659    0.273659    0.000000                     |
 +----------------------------------------------------------------------------+
  
 Time to get kmesh              1.770 (sec)
 *============================================================================*
 |                              MEMORY ESTIMATE                               |
 |         Maximum RAM allocated during each phase of the calculation         |
 *============================================================================*
 |                        Disentanglement          114.92 Mb                  |
 |                            Wannierise:           79.46 Mb                  |
 |                                                                            |
 |   N.B. by setting optimisation=0 memory usage will be reduced to:          |
 |                        Disentanglement           96.84 Mb                  |
 |                            Wannierise:           49.09 Mb                  |
 |   However, this will result in more i/o and slow down the calculation      |
 |                          plot_wannier:           79.46 Mb                  |
 *----------------------------------------------------------------------------*
  
 Starting a new Wannier90 calculation ...


 Reading overlaps from Fe.mmn    :  Created on 25Jun2019 at 18:43:54

 Reading projections from Fe.amn :  Created on  2Jul2019 at 21:56:23

 Time to read overlaps          5.682 (sec)

 *------------------------------- DISENTANGLE --------------------------------*
 +----------------------------------------------------------------------------+
 |                              Energy  Windows                               |
 |                              ---------------                               |
 |                   Outer:   -8.00000  to   70.00000  (eV)                   |
 |                   Inner:   -8.00000  to   30.00000  (eV)                   |
 +----------------------------------------------------------------------------+
 |                        K-points with Frozen States                         |
 |                        ---------------------------                         |
 |     1     2     3     4     5     6     7     8     9    10    11    12    |
 |    13    14    15    16    17    18    19    20    21    22    23    24    |
 |    25    26    27    28    29    30    31    32    33    34    35    36    |
 |    37    38    39    40    41    42    43    44    45    46    47    48    |
 |    49    50    51    52    53    54    55    56    57    58    59    60    |
 |    61    62    63    64    65    66    67    68    69    70    71    72    |
 |    73    74    75    76    77    78    79    80    81    82    83    84    |
 |    85    86    87    88    89    90    91    92    93    94    95    96    |
 |    97    98    99   100   101   102   103   104   105   106   107   108    |
 |   109   110   111   112   113   114   115   116   117   118   119   120    |
 |   121   122   123   124   125   126   127   128   129   130   131   132    |
 |   133   134   135   136   137   138   139   140   141   142   143   144    |
 |   145   146   147   148   149   150   151   152   153   154   155   156    |
 |   157   158   159   160   161   162   163   164   165   166   167   168    |
 |   169   170   171   172   173   174   175   176   177   178   179   180    |
 |   181   182   183   184   185   186   187   188   189   190   191   192    |
 |   193   194   195   196   197   198   199   200   201   202   203   204    |
 |   205   206   207   208   209   210   211   212   213   214   215   216    |
 |   217   218   219   220   221   222   223   224   225   226   227   228    |
 |   229   230   231   232   233   234   235   236   237   238   239   240    |
 |   241   242   243   244   245   246   247   248   249   250   251   252    |
 |   253   254   255   256   257   258   259   260   261   262   263   264    |
 |   265   266   267   268   269   270   271   272   273   274   275   276    |
 |   277   278   279   280   281   282   283   284   285   286   287   288    |
 |   289   290   291   292   293   294   295   296   297   298   299   300    |
 |   301   302   303   304   305   306   307   308   309   310   311   312    |
 |   313   314   315   316   317   318   319   320   321   322   323   324    |
 |   325   326   327   328   329   330   331   332   333   334   335   336    |
 |   337   338   339   340   341   342   343   344   345   346   347   348    |
 |   349   350   351   352   353   354   355   356   357   358   359   360    |
 |   361   362   363   364   365   366   367   368   369   370   371   372    |
 |   373   374   375   376   377   378   379   380   381   382   383   384    |
 |   385   386   387   388   389   390   391   392   393   394   395   396    |
 |   397   398   399   400   401   402   403   404   405   406   407   408    |
 |   409   410   411   412   413   414   415   416   417   418   419   420    |
 |   421   422   423   424   425   426   427   428   429   430   431   432    |
 |   433   434   435   436   437   438   439   440   441   442   443   444    |
 |   445   446   447   448   449   450   451   452   453   454   455   456    |
 |   457   458   459   460   461   462   463   464   465   466   467   468    |
 |   469   470   471   472   473   474   475   476   477   478   479   480    |
 |   481   482   483   484   485   486   487   488   489   490   491   492    |
 |   493   494   495   496   497   498   499   500   501   502   503   504    |
 |   505   506   507   508   509   510   511   512                            |
 +----------------------------------------------------------------------------+
   Number of target bands to extract:   18
 +----------------------------------------------------------------------------+
 |                                  Windows                                   |
 |                                  -------                                   |
 |               K-point      Ndimwin     Ndimfroz    Nfirstwin               |
 |               ----------------------------------------------               |
 |                   1           28           12           1                  |
 |                   2           28           12           1                  |
 |                   3           28           14           1                  |
 |                   4           28           14           1                  |
 |                   5           28           14           1                  |
 |                   6           28           14           1                  |
 |                   7           28           14           1                  |
 |                   8           28           12           1                  |
 |                   9           28           12           1                  |
 |                  10           28           12           1                  |
 |                  11           28           12           1                  |
 |                  12           28           14           1                  |
 |                  13           28           16           1                  |
 |                  14           28           16           1                  |
 |                  15           28           14           1                  |
 |                  16           28           12           1                  |
 |                  17           28           14           1                  |
 |                  18           28           12           1                  |
 |                  19           28           14           1                  |
 |                  20           28           14           1                  |
 |                  21           28           16           1                  |
 |                  22           28           16           1                  |
 |                  23           28           16           1                  |
 |                  24           28           14           1                  |
 |                  25           28           14           1                  |
 |                  26           28           14           1                  |
 |                  27           28           14           1                  |
 |                  28           28           14           1                  |
 |                  29           28           16           1                  |
 |                  30           28           16           1                  |
 |                  31           28           16           1                  |
 |                  32           28           16           1                  |
 |                  33           28           14           1                  |
 |                  34           28           16           1                  |
 |                  35           28           16           1                  |
 |                  36           28           16           1                  |
 |                  37           28           14           1                  |
 |                  38           28           16           1                  |
 |                  39           28           16           1                  |
 |                  40           28           16           1                  |
 |                  41           28           14           1                  |
 |                  42           28           16           1                  |
 |                  43           28           16           1                  |
 |                  44           28           16           1                  |
 |                  45           28           16           1                  |
 |                  46           28           14           1                  |
 |                  47           28           14           1                  |
 |                  48           28           14           1                  |
 |                  49           28           14           1                  |
 |                  50           28           14           1                  |
 |                  51           28           16           1                  |
 |                  52           28           16           1                  |
 |                  53           28           16           1                  |
 |                  54           28           14           1                  |
 |                  55           28           14           1                  |
 |                  56           28           12           1                  |
 |                  57           28           12           1                  |
 |                  58           28           12           1                  |
 |                  59           28           14           1                  |
 |                  60           28           16           1                  |
 |                  61           28           16           1                  |
 |                  62           28           14           1                  |
 |                  63           28           12           1                  |
 |                  64           28           12           1                  |
 |                  65           28           12           1                  |
 |                  66           28           12           1                  |
 |                  67           28           14           1                  |
 |                  68           28           16           1                  |
 |                  69           28           16           1                  |
 |                  70           28           14           1                  |
 |                  71           28           12           1                  |
 |                  72           28           12           1                  |
 |                  73           28           12           1                  |
 |                  74           28           12           1                  |
 |                  75           28           13           1                  |
 |                  76           28           14           1                  |
 |                  77           28           14           1                  |
 |                  78           28           14           1                  |
 |                  79           28           13           1                  |
 |                  80           28           12           1                  |
 |                  81           28           12           1                  |
 |                  82           28           12           1                  |
 |                  83           28           13           1                  |
 |                  84           28           16           1                  |
 |                  85           28           16           1                  |
 |                  86           28           16           1                  |
 |                  87           28           16           1                  |
 |                  88           28           13           1                  |
 |                  89           28           14           1                  |
 |                  90           28           14           1                  |
 |                  91           28           14           1                  |
 |                  92           28           14           1                  |
 |                  93           28           16           1                  |
 |                  94           28           16           1                  |
 |                  95           28           16           1                  |
 |                  96           28           14           1                  |
 |                  97           28           16           1                  |
 |                  98           28           18           1                  |
 |                  99           28           18           1                  |
 |                 100           28           16           1                  |
 |                 101           28           14           1                  |
 |                 102           28           16           1                  |
 |                 103           28           16           1                  |
 |                 104           28           14           1                  |
 |                 105           28           16           1                  |
 |                 106           28           18           1                  |
 |                 107           28           18           1                  |
 |                 108           28           18           1                  |
 |                 109           28           16           1                  |
 |                 110           28           14           1                  |
 |                 111           28           16           1                  |
 |                 112           28           14           1                  |
 |                 113           28           14           1                  |
 |                 114           28           18           1                  |
 |                 115           28           18           1                  |
 |                 116           28           18           1                  |
 |                 117           28           18           1                  |
 |                 118           28           14           1                  |
 |                 119           28           13           1                  |
 |                 120           28           13           1                  |
 |                 121           28           12           1                  |
 |                 122           28           14           1                  |
 |                 123           28           18           1                  |
 |                 124           28           18           1                  |
 |                 125           28           18           1                  |
 |                 126           28           14           1                  |
 |                 127           28           12           1                  |
 |                 128           28           12           1                  |
 |                 129           28           14           1                  |
 |                 130           28           14           1                  |
 |                 131           28           16           1                  |
 |                 132           28           16           1                  |
 |                 133           28           16           1                  |
 |                 134           28           14           1                  |
 |                 135           28           14           1                  |
 |                 136           28           12           1                  |
 |                 137           28           12           1                  |
 |                 138           28           13           1                  |
 |                 139           28           16           1                  |
 |                 140           28           16           1                  |
 |                 141           28           16           1                  |
 |                 142           28           16           1                  |
 |                 143           28           13           1                  |
 |                 144           28           12           1                  |
 |                 145           28           14           1                  |
 |                 146           28           13           1                  |
 |                 147           28           12           1                  |
 |                 148           28           16           1                  |
 |                 149           28           16           1                  |
 |                 150           28           16           1                  |
 |                 151           28           12           1                  |
 |                 152           28           13           1                  |
 |                 153           28           14           1                  |
 |                 154           28           14           1                  |
 |                 155           28           16           1                  |
 |                 156           28           16           1                  |
 |                 157           28           16           1                  |
 |                 158           28           16           1                  |
 |                 159           28           16           1                  |
 |                 160           28           16           1                  |
 |                 161           28           16           1                  |
 |                 162           28           18           1                  |
 |                 163           28           16           1                  |
 |                 164           28           16           1                  |
 |                 165           28           16           1                  |
 |                 166           28           16           1                  |
 |                 167           28           16           1                  |
 |                 168           28           16           1                  |
 |                 169           28           16           1                  |
 |                 170           28           18           1                  |
 |                 171           28           18           1                  |
 |                 172           28           16           1                  |
 |                 173           28           16           1                  |
 |                 174           28           16           1                  |
 |                 175           28           16           1                  |
 |                 176           28           16           1                  |
 |                 177           28           16           1                  |
[...]
  WF centre and spread    2  ( -0.685486,  0.000000,  0.000000 )     1.10285150
  WF centre and spread    3  (  0.709856,  0.000001,  0.000004 )     1.08972835
  WF centre and spread    4  (  0.685487,  0.000000,  0.000000 )     1.10285164
  WF centre and spread    5  ( -0.000000, -0.709858,  0.000006 )     1.08972921
  WF centre and spread    6  ( -0.000000, -0.685487, -0.000000 )     1.10285174
  WF centre and spread    7  ( -0.000000,  0.709854,  0.000006 )     1.08972731
  WF centre and spread    8  ( -0.000000,  0.685486, -0.000000 )     1.10285140
  WF centre and spread    9  ( -0.000000,  0.000001, -0.709855 )     1.08977350
  WF centre and spread   10  ( -0.000000,  0.000000, -0.685510 )     1.10302422
  WF centre and spread   11  (  0.000000,  0.000001,  0.709832 )     1.08976325
  WF centre and spread   12  ( -0.000000,  0.000000,  0.685509 )     1.10302419
  WF centre and spread   13  (  0.000000,  0.000000, -0.000002 )     0.43233768
  WF centre and spread   14  (  0.000000,  0.000000, -0.000000 )     0.41119733
  WF centre and spread   15  ( -0.000000, -0.000001, -0.000003 )     0.43233768
  WF centre and spread   16  ( -0.000000, -0.000000,  0.000000 )     0.41119732
  WF centre and spread   17  (  0.000000, -0.000000,  0.000000 )     0.43234117
  WF centre and spread   18  (  0.000000, -0.000000, -0.000000 )     0.41120664
  Sum of centres and spreads (  0.000000, -0.000001, -0.000008 )    15.68652222

     42    -0.845E-10     0.0000848331       15.6865222159      23.21  <-- CONV
        O_D=      0.0315718 O_OD=      3.7566073 O_TOT=     15.6865222 <-- SPRD
 Delta: O_D=  0.2039582E-09 O_OD= -0.2884186E-09 O_TOT= -0.8445866E-10 <-- DLTA
 ------------------------------------------------------------------------------
 Cycle:     43
  WF centre and spread    1  ( -0.709856,  0.000001,  0.000004 )     1.08972806
  WF centre and spread    2  ( -0.685487,  0.000000,  0.000000 )     1.10285149
  WF centre and spread    3  (  0.709856,  0.000001,  0.000004 )     1.08972831
  WF centre and spread    4  (  0.685487,  0.000000,  0.000000 )     1.10285163
  WF centre and spread    5  ( -0.000000, -0.709858,  0.000006 )     1.08972918
  WF centre and spread    6  ( -0.000000, -0.685487, -0.000000 )     1.10285173
  WF centre and spread    7  ( -0.000000,  0.709854,  0.000006 )     1.08972727
  WF centre and spread    8  ( -0.000000,  0.685486, -0.000000 )     1.10285139
  WF centre and spread    9  ( -0.000000,  0.000001, -0.709855 )     1.08977348
  WF centre and spread   10  ( -0.000000,  0.000000, -0.685510 )     1.10302421
  WF centre and spread   11  (  0.000000,  0.000001,  0.709832 )     1.08976320
  WF centre and spread   12  ( -0.000000,  0.000000,  0.685510 )     1.10302418
  WF centre and spread   13  (  0.000000,  0.000000, -0.000002 )     0.43233774
  WF centre and spread   14  (  0.000000,  0.000000, -0.000000 )     0.41119734
  WF centre and spread   15  ( -0.000000, -0.000001, -0.000003 )     0.43233773
  WF centre and spread   16  ( -0.000000, -0.000000,  0.000000 )     0.41119734
  WF centre and spread   17  (  0.000000, -0.000000,  0.000000 )     0.43234123
  WF centre and spread   18  (  0.000000, -0.000000, -0.000000 )     0.41120664
  Sum of centres and spreads (  0.000000, -0.000001, -0.000008 )    15.68652213

     43    -0.827E-07     0.0000848546       15.6865221332      23.47  <-- CONV
        O_D=      0.0315719 O_OD=      3.7566072 O_TOT=     15.6865221 <-- SPRD
 Delta: O_D=  0.9123078E-07 O_OD= -0.1739086E-06 O_TOT= -0.8267783E-07 <-- DLTA
 ------------------------------------------------------------------------------
 Cycle:     44
  WF centre and spread    1  ( -0.709856,  0.000001,  0.000004 )     1.08972842
  WF centre and spread    2  ( -0.685487,  0.000000,  0.000000 )     1.10285194
  WF centre and spread    3  (  0.709857,  0.000001,  0.000004 )     1.08972867
  WF centre and spread    4  (  0.685487,  0.000000,  0.000000 )     1.10285208
  WF centre and spread    5  ( -0.000000, -0.709858,  0.000006 )     1.08972955
  WF centre and spread    6  ( -0.000000, -0.685487, -0.000000 )     1.10285218
  WF centre and spread    7  ( -0.000000,  0.709854,  0.000006 )     1.08972761
  WF centre and spread    8  ( -0.000000,  0.685487, -0.000000 )     1.10285184
  WF centre and spread    9  ( -0.000000,  0.000001, -0.709855 )     1.08977393
  WF centre and spread   10  ( -0.000000,  0.000000, -0.685510 )     1.10302466
  WF centre and spread   11  (  0.000000,  0.000001,  0.709832 )     1.08976347
  WF centre and spread   12  ( -0.000000,  0.000000,  0.685510 )     1.10302463
  WF centre and spread   13  (  0.000000,  0.000000, -0.000002 )     0.43233694
  WF centre and spread   14  (  0.000000,  0.000000, -0.000000 )     0.41119645
  WF centre and spread   15  ( -0.000000, -0.000001, -0.000003 )     0.43233693
  WF centre and spread   16  ( -0.000000, -0.000000,  0.000000 )     0.41119645
  WF centre and spread   17  (  0.000000, -0.000000,  0.000000 )     0.43234051
  WF centre and spread   18  (  0.000000, -0.000000, -0.000000 )     0.41120572
  Sum of centres and spreads (  0.000000, -0.000001, -0.000008 )    15.68652198

     44    -0.150E-06     0.0000777467       15.6865219830      23.73  <-- CONV
        O_D=      0.0315720 O_OD=      3.7566068 O_TOT=     15.6865220 <-- SPRD
 Delta: O_D=  0.1776485E-06 O_OD= -0.3278187E-06 O_TOT= -0.1501702E-06 <-- DLTA
 ------------------------------------------------------------------------------
 Cycle:     45
  WF centre and spread    1  ( -0.709856,  0.000001,  0.000004 )     1.08972820
  WF centre and spread    2  ( -0.685486,  0.000000,  0.000000 )     1.10285168
  WF centre and spread    3  (  0.709856,  0.000001,  0.000004 )     1.08972846
  WF centre and spread    4  (  0.685487,  0.000000,  0.000000 )     1.10285182
  WF centre and spread    5  ( -0.000000, -0.709858,  0.000006 )     1.08972934
  WF centre and spread    6  ( -0.000000, -0.685487, -0.000000 )     1.10285193
  WF centre and spread    7  ( -0.000000,  0.709854,  0.000006 )     1.08972739
  WF centre and spread    8  ( -0.000000,  0.685486, -0.000000 )     1.10285158
  WF centre and spread    9  ( -0.000000,  0.000001, -0.709855 )     1.08977372
  WF centre and spread   10  ( -0.000000,  0.000000, -0.685510 )     1.10302440
  WF centre and spread   11  (  0.000000,  0.000002,  0.709832 )     1.08976325
  WF centre and spread   12  ( -0.000000,  0.000000,  0.685509 )     1.10302438
  WF centre and spread   13  (  0.000000,  0.000000, -0.000002 )     0.43233733
  WF centre and spread   14  (  0.000000,  0.000000, -0.000000 )     0.41119694
  WF centre and spread   15  ( -0.000000, -0.000001, -0.000003 )     0.43233733
  WF centre and spread   16  ( -0.000000, -0.000000,  0.000000 )     0.41119694
  WF centre and spread   17  (  0.000000, -0.000000,  0.000000 )     0.43234090
  WF centre and spread   18  (  0.000000, -0.000000, -0.000000 )     0.41120621
  Sum of centres and spreads (  0.000000, -0.000001, -0.000008 )    15.68652179

     45    -0.192E-06     0.0001935134       15.6865217908      23.98  <-- CONV
        O_D=      0.0315719 O_OD=      3.7566067 O_TOT=     15.6865218 <-- SPRD
 Delta: O_D= -0.1173817E-06 O_OD= -0.7487024E-07 O_TOT= -0.1922519E-06 <-- DLTA
 ------------------------------------------------------------------------------
 Cycle:     46
  WF centre and spread    1  ( -0.709855,  0.000001,  0.000004 )     1.08972735
  WF centre and spread    2  ( -0.685486,  0.000000,  0.000000 )     1.10285120
  WF centre and spread    3  (  0.709856,  0.000001,  0.000004 )     1.08972761
  WF centre and spread    4  (  0.685486,  0.000000,  0.000000 )     1.10285134
  WF centre and spread    5  ( -0.000000, -0.709858,  0.000007 )     1.08972851
  WF centre and spread    6  ( -0.000000, -0.685486, -0.000000 )     1.10285145
  WF centre and spread    7  ( -0.000000,  0.709853,  0.000006 )     1.08972652
  WF centre and spread    8  ( -0.000000,  0.685485, -0.000000 )     1.10285109
  WF centre and spread    9  ( -0.000000,  0.000001, -0.709855 )     1.08977301
  WF centre and spread   10  ( -0.000000,  0.000000, -0.685509 )     1.10302394
  WF centre and spread   11  (  0.000000,  0.000002,  0.709831 )     1.08976228
  WF centre and spread   12  ( -0.000000,  0.000000,  0.685509 )     1.10302391
  WF centre and spread   13  (  0.000000,  0.000000, -0.000002 )     0.43234198
  WF centre and spread   14  (  0.000000,  0.000000, -0.000000 )     0.41120153
  WF centre and spread   15  ( -0.000000, -0.000001, -0.000003 )     0.43234197
  WF centre and spread   16  ( -0.000000, -0.000000,  0.000000 )     0.41120153
  WF centre and spread   17  (  0.000000, -0.000000,  0.000000 )     0.43234566
  WF centre and spread   18  (  0.000000, -0.000000, -0.000000 )     0.41121074
  Sum of centres and spreads (  0.000000, -0.000001, -0.000008 )    15.68654163

     46     0.198E-04     0.0000869431       15.6865416340      24.22  <-- CONV
        O_D=      0.0315743 O_OD=      3.7566242 O_TOT=     15.6865416 <-- SPRD
 Delta: O_D=  0.2351506E-05 O_OD=  0.1749174E-04 O_TOT=  0.1984325E-04 <-- DLTA
 ------------------------------------------------------------------------------
 Cycle:     47
  WF centre and spread    1  ( -0.709856,  0.000001,  0.000004 )     1.08972736
  WF centre and spread    2  ( -0.685486,  0.000000,  0.000000 )     1.10285072
  WF centre and spread    3  (  0.709856,  0.000001,  0.000004 )     1.08972762
  WF centre and spread    4  (  0.685486,  0.000000,  0.000000 )     1.10285087
  WF centre and spread    5  ( -0.000000, -0.709858,  0.000007 )     1.08972852
  WF centre and spread    6  ( -0.000000, -0.685486, -0.000000 )     1.10285098
  WF centre and spread    7  ( -0.000000,  0.709854,  0.000006 )     1.08972652
  WF centre and spread    8  ( -0.000000,  0.685486, -0.000000 )     1.10285062
  WF centre and spread    9  ( -0.000000,  0.000001, -0.709855 )     1.08977301
  WF centre and spread   10  ( -0.000000,  0.000000, -0.685509 )     1.10302347
  WF centre and spread   11  (  0.000000,  0.000002,  0.709832 )     1.08976228
  WF centre and spread   12  ( -0.000000,  0.000000,  0.685509 )     1.10302344
  WF centre and spread   13  (  0.000000,  0.000000, -0.000002 )     0.43233927
  WF centre and spread   14  (  0.000000,  0.000000, -0.000000 )     0.41119932
  WF centre and spread   15  ( -0.000000, -0.000001, -0.000003 )     0.43233926
  WF centre and spread   16  ( -0.000000, -0.000000,  0.000000 )     0.41119932
  WF centre and spread   17  (  0.000000, -0.000000,  0.000000 )     0.43234295
  WF centre and spread   18  (  0.000000, -0.000000, -0.000000 )     0.41120853
  Sum of centres and spreads (  0.000000, -0.000001, -0.000008 )    15.68652407

     47    -0.176E-04     0.0024599417       15.6865240671      24.48  <-- CONV
        O_D=      0.0315726 O_OD=      3.7566083 O_TOT=     15.6865241 <-- SPRD
 Delta: O_D= -0.1657899E-05 O_OD= -0.1590898E-04 O_TOT= -0.1756688E-04 <-- DLTA
 ------------------------------------------------------------------------------
 Cycle:     48
  WF centre and spread    1  ( -0.709856,  0.000001,  0.000004 )     1.08972874
  WF centre and spread    2  ( -0.685487,  0.000000,  0.000000 )     1.10285210
  WF centre and spread    3  (  0.709857,  0.000001,  0.000004 )     1.08972900
  WF centre and spread    4  (  0.685488,  0.000000,  0.000000 )     1.10285225
  WF centre and spread    5  ( -0.000000, -0.709859,  0.000007 )     1.08972990
  WF centre and spread    6  ( -0.000000, -0.685488, -0.000000 )     1.10285236
  WF centre and spread    7  ( -0.000000,  0.709855,  0.000006 )     1.08972791
  WF centre and spread    8  ( -0.000000,  0.685487, -0.000000 )     1.10285200
  WF centre and spread    9  ( -0.000000,  0.000001, -0.709856 )     1.08977440
  WF centre and spread   10  ( -0.000000,  0.000000, -0.685511 )     1.10302484
  WF centre and spread   11  (  0.000000,  0.000002,  0.709832 )     1.08976366
  WF centre and spread   12  ( -0.000000,  0.000000,  0.685510 )     1.10302481
  WF centre and spread   13  (  0.000000,  0.000000, -0.000002 )     0.43233612
  WF centre and spread   14  (  0.000000,  0.000000, -0.000000 )     0.41119610
  WF centre and spread   15  ( -0.000000, -0.000001, -0.000003 )     0.43233611
  WF centre and spread   16  ( -0.000000, -0.000000,  0.000000 )     0.41119610
  WF centre and spread   17  (  0.000000, -0.000000,  0.000000 )     0.43233980
  WF centre and spread   18  (  0.000000, -0.000000, -0.000000 )     0.41120530
  Sum of centres and spreads (  0.000000, -0.000001, -0.000008 )    15.68652149

     48    -0.258E-05     0.0006416269       15.6865214908      24.73  <-- CONV
        O_D=      0.0315718 O_OD=      3.7566066 O_TOT=     15.6865215 <-- SPRD
 Delta: O_D= -0.8547492E-06 O_OD= -0.1721542E-05 O_TOT= -0.2576291E-05 <-- DLTA
 ------------------------------------------------------------------------------
 Cycle:     49
  WF centre and spread    1  ( -0.709856,  0.000001,  0.000004 )     1.08972882
  WF centre and spread    2  ( -0.685487,  0.000000,  0.000000 )     1.10285217
  WF centre and spread    3  (  0.709857,  0.000001,  0.000004 )     1.08972908
  WF centre and spread    4  (  0.685487,  0.000000,  0.000000 )     1.10285231
  WF centre and spread    5  ( -0.000000, -0.709859,  0.000007 )     1.08972998
  WF centre and spread    6  ( -0.000000, -0.685488, -0.000000 )     1.10285242
  WF centre and spread    7  ( -0.000000,  0.709855,  0.000006 )     1.08972799
  WF centre and spread    8  ( -0.000000,  0.685487, -0.000000 )     1.10285206
  WF centre and spread    9  ( -0.000000,  0.000001, -0.709856 )     1.08977448
  WF centre and spread   10  ( -0.000000,  0.000000, -0.685510 )     1.10302490
  WF centre and spread   11  (  0.000000,  0.000002,  0.709832 )     1.08976373
  WF centre and spread   12  ( -0.000000,  0.000000,  0.685510 )     1.10302487
  WF centre and spread   13  (  0.000000,  0.000000, -0.000002 )     0.43233595
  WF centre and spread   14  (  0.000000,  0.000000, -0.000000 )     0.41119597
  WF centre and spread   15  ( -0.000000, -0.000001, -0.000003 )     0.43233594
  WF centre and spread   16  ( -0.000000, -0.000000,  0.000000 )     0.41119597
  WF centre and spread   17  (  0.000000, -0.000000,  0.000000 )     0.43233963
  WF centre and spread   18  (  0.000000, -0.000000, -0.000000 )     0.41120517
  Sum of centres and spreads (  0.000000, -0.000001, -0.000008 )    15.68652143

     49    -0.615E-07     0.0001248834       15.6865214294      24.98  <-- CONV
        O_D=      0.0315716 O_OD=      3.7566067 O_TOT=     15.6865214 <-- SPRD
 Delta: O_D= -0.1212836E-06 O_OD=  0.5981815E-07 O_TOT= -0.6146548E-07 <-- DLTA
 ------------------------------------------------------------------------------
 Cycle:     50
  WF centre and spread    1  ( -0.709856,  0.000001,  0.000004 )     1.08972884
  WF centre and spread    2  ( -0.685487,  0.000000,  0.000000 )     1.10285218
  WF centre and spread    3  (  0.709857,  0.000001,  0.000004 )     1.08972910
  WF centre and spread    4  (  0.685487,  0.000000,  0.000000 )     1.10285232
  WF centre and spread    5  ( -0.000000, -0.709859,  0.000007 )     1.08973000
  WF centre and spread    6  ( -0.000000, -0.685487, -0.000000 )     1.10285243
  WF centre and spread    7  ( -0.000000,  0.709854,  0.000006 )     1.08972800
  WF centre and spread    8  ( -0.000000,  0.685487, -0.000000 )     1.10285207
  WF centre and spread    9  ( -0.000000,  0.000001, -0.709856 )     1.08977450
  WF centre and spread   10  ( -0.000000,  0.000000, -0.685510 )     1.10302491
  WF centre and spread   11  (  0.000000,  0.000002,  0.709832 )     1.08976375
  WF centre and spread   12  ( -0.000000,  0.000000,  0.685510 )     1.10302488
  WF centre and spread   13  (  0.000000,  0.000000, -0.000002 )     0.43233591
  WF centre and spread   14  (  0.000000,  0.000000, -0.000000 )     0.41119595
  WF centre and spread   15  ( -0.000000, -0.000001, -0.000003 )     0.43233590
  WF centre and spread   16  ( -0.000000, -0.000000,  0.000000 )     0.41119594
  WF centre and spread   17  (  0.000000, -0.000000,  0.000000 )     0.43233960
  WF centre and spread   18  (  0.000000, -0.000000, -0.000000 )     0.41120514
  Sum of centres and spreads (  0.000000, -0.000001, -0.000008 )    15.68652141

     50    -0.147E-07     0.0000574475       15.6865214147      25.23  <-- CONV
        O_D=      0.0315716 O_OD=      3.7566067 O_TOT=     15.6865214 <-- SPRD
 Delta: O_D= -0.4146141E-07 O_OD=  0.2678033E-07 O_TOT= -0.1468108E-07 <-- DLTA
 ------------------------------------------------------------------------------
 Final State
  WF centre and spread    1  ( -0.709856,  0.000001,  0.000004 )     1.08972884
  WF centre and spread    2  ( -0.685487,  0.000000,  0.000000 )     1.10285218
  WF centre and spread    3  (  0.709857,  0.000001,  0.000004 )     1.08972910
  WF centre and spread    4  (  0.685487,  0.000000,  0.000000 )     1.10285232
  WF centre and spread    5  ( -0.000000, -0.709859,  0.000007 )     1.08973000
  WF centre and spread    6  ( -0.000000, -0.685487, -0.000000 )     1.10285243
  WF centre and spread    7  ( -0.000000,  0.709854,  0.000006 )     1.08972800
  WF centre and spread    8  ( -0.000000,  0.685487, -0.000000 )     1.10285207
  WF centre and spread    9  ( -0.000000,  0.000001, -0.709856 )     1.08977450
  WF centre and spread   10  ( -0.000000,  0.000000, -0.685510 )     1.10302491
  WF centre and spread   11  (  0.000000,  0.000002,  0.709832 )     1.08976375
  WF centre and spread   12  ( -0.000000,  0.000000,  0.685510 )     1.10302488
  WF centre and spread   13  (  0.000000,  0.000000, -0.000002 )     0.43233591
  WF centre and spread   14  (  0.000000,  0.000000, -0.000000 )     0.41119595
  WF centre and spread   15  ( -0.000000, -0.000001, -0.000003 )     0.43233590
  WF centre and spread   16  ( -0.000000, -0.000000,  0.000000 )     0.41119594
  WF centre and spread   17  (  0.000000, -0.000000,  0.000000 )     0.43233960
  WF centre and spread   18  (  0.000000, -0.000000, -0.000000 )     0.41120514
  Sum of centres and spreads (  0.000000, -0.000001, -0.000008 )    15.68652141

         Spreads (Ang^2)       Omega I      =    11.898343110
        ================       Omega D      =     0.031571607
                               Omega OD     =     3.756606697
    Final Spread (Ang^2)       Omega Total  =    15.686521415
 ------------------------------------------------------------------------------
 Time for wannierise           12.394 (sec)

 Writing checkpoint file Fe.chk... done

 *---------------------------------------------------------------------------*
 |                               PLOTTING                                    |
 *---------------------------------------------------------------------------*


 Calculating interpolated band-structure

 Time to calculate interpolated band structure       0.039 (sec)

 Time for plotting             35.955 (sec)
 Total Execution Time          69.280 (sec)

 *===========================================================================*
 |                             TIMING INFORMATION                            |
 *===========================================================================*
 |    Tag                                                Ncalls      Time (s)|
 |---------------------------------------------------------------------------|
 |kmesh: get                                        :         1         1.769|
 |overlap: allocate                                 :         1         0.001|
 |overlap: read                                     :         1         5.681|
 |dis: main                                         :         1        13.164|
 |wann: main                                        :         1        12.394|
 |plot: main                                        :         1        35.955|
 *---------------------------------------------------------------------------*

 All done: wannier90 exiting
