
             +---------------------------------------------------+
             |                                                   |
             |                   WANNIER90                       |
             |                                                   |
             +---------------------------------------------------+
             |                                                   |
             |        Welcome to the Maximally-Localized         |
             |        Generalized Wannier Functions code         |
             |            http://www.wannier.org                 |
             |                                                   |
             |                                                   |
             |  Wannier90 Developer Group:                       |
             |    Giovanni Pizzi    (EPFL)                       |
             |    Valerio Vitale    (Cambridge)                  |
             |    David Vanderbilt  (Rutgers University)         |
             |    Nicola Marzari    (EPFL)                       |
             |    Ivo Souza         (Universidad del Pais Vasco) |
             |    Arash A. Mostofi  (Imperial College London)    |
             |    Jonathan R. Yates (University of Oxford)       |
             |                                                   |
             |  For the full list of Wannier90 3.x authors,      |
             |  please check the code documentation and the      |
             |  README on the GitHub page of the code            |
             |                                                   |
             |                                                   |
             |  Please cite                                      |
             |                                                   |
             |  [ref] "An updated version of Wannier90:          |
             |        A Tool for Obtaining Maximally Localised   |
             |        Wannier Functions", A. A. Mostofi,         |
             |        J. R. Yates, G. Pizzi, Y. S. Lee,          |
             |        I. Souza, D. Vanderbilt and N. Marzari,    |
             |        Comput. Phys. Commun. 185, 2309 (2014)     |
             |        http://dx.doi.org/10.1016/j.cpc.2014.05.003|
             |                                                   |
             |  in any publications arising from the use of      |
             |  this code. For the method please cite            |
             |                                                   |
             |  [ref] "Maximally Localized Generalised Wannier   |
             |         Functions for Composite Energy Bands"     |
             |         N. Marzari and D. Vanderbilt              |
             |         Phys. Rev. B 56 12847 (1997)              |
             |                                                   |
             |  [ref] "Maximally Localized Wannier Functions     |
             |         for Entangled Energy Bands"               |
             |         I. Souza, N. Marzari and D. Vanderbilt    |
             |         Phys. Rev. B 65 035109 (2001)             |
             |                                                   |
             |                                                   |
             | Copyright (c) 1996-2019                           |
             |        The Wannier90 Developer Group and          |
             |        individual contributors                    |
             |                                                   |
             |      Release: 3.0.0       27th February 2019      |
             |                                                   |
             | This program is free software; you can            |
             | redistribute it and/or modify it under the terms  |
             | of the GNU General Public License as published by |
             | the Free Software Foundation; either version 2 of |
             | the License, or (at your option) any later version|
             |                                                   |
             | This program is distributed in the hope that it   |
             | will be useful, but WITHOUT ANY WARRANTY; without |
             | even the implied warranty of MERCHANTABILITY or   |
             | FITNESS FOR A PARTICULAR PURPOSE. See the GNU     |
             | General Public License for more details.          |
             |                                                   |
             | You should have received a copy of the GNU General|
             | Public License along with this program; if not,   |
             | write to the Free Software Foundation, Inc.,      |
             | 675 Mass Ave, Cambridge, MA 02139, USA.           |
             |                                                   |
             +---------------------------------------------------+
             |    Execution started on  4Jul2019 at 20:23:06     |
             +---------------------------------------------------+
 
 ******************************************************************************
 * -> Using CODATA 2006 constant values                                       *
 *    (http://physics.nist.gov/cuu/Constants/index.html)                      *
 * -> Using Bohr value from CODATA                                            *
 ******************************************************************************
 

 Running in serial (with serial executable)

                                    ------
                                    SYSTEM
                                    ------

                              Lattice Vectors (Ang)
                    a_1     1.434996   1.434996   1.434996
                    a_2    -1.434996   1.434996   1.434996
                    a_3    -1.434996  -1.434996   1.434996

                   Unit Cell Volume:      11.81986  (Ang^3)

                        Reciprocal-Space Vectors (Ang^-1)
                    b_1     2.189269   0.000000   2.189269
                    b_2    -2.189269   2.189269   0.000000
                    b_3     0.000000  -2.189269   2.189269
  
 *----------------------------------------------------------------------------*
 |   Site       Fractional Coordinate          Cartesian Coordinate (Ang)     |
 +----------------------------------------------------------------------------+
 | Fe   1   0.00000   0.00000   0.00000   |    0.00000   0.00000   0.00000    |
 *----------------------------------------------------------------------------*
  
  
 *-------------------------------- POSTW90 -----------------------------------*
 |  Number of Wannier Functions               :                18             |
 |  Number of electrons per state             :                 1             |
 |  Scissor shift applied to conduction bands :             0.000             |
 |  Number of valence bands                   :       not defined             |
 |  Fermi energy (eV)                         :            12.600             |
 |  Output verbosity (1=low, 5=high)          :                 2             |
 |  Timing Level (1=low, 5=high)              :                 1             |
 |  Optimisation (0=memory, 3=speed)          :                 3             |
 |  Length Unit                               :               Ang             |
 *----------------------------------------------------------------------------*
 *------------------------ Global Smearing Parameters ------------------------*
 |  Adaptive width smearing                   :                 T             |
 |  Adaptive smearing factor                  :             1.414             |
 |  Maximum allowed smearing width (eV)       :             1.000             |
 |  Smearing Function                                             Gaussian    |
 |  Global interpolation k-points defined     :                 F             |
 *----------------------------------------------------------------------------*
 *----------------------------------------------------------------------------*
 *--------------------------------- BERRY ------------------------------------*
 |  Compute Berry Phase related properties    :                 T             |
 |  Compute Optical Conductivity and JDOS     :                 F             |
 |  Compute Anomalous Hall Conductivity       :                 T             |
 |  Compute Shift Current                     :                 F             |
 |  Compute Orbital Magnetisation             :                 F             |
 |  Compute Spin Hall Conductivity            :                 F             |
 |  Lower frequency for optical responses     :             0.000             |
 |  Upper frequency for optical responses     :            18.067             |
 |  Step size for optical responses           :             0.010             |
 |  Upper eigenvalue for optical responses    :            30.667             |
 |  Using global smearing parameters                                          |
 |  Grid size                                 :    30 x  30 x  30             |
 |  Adaptive refinement                       :              none             |
 *----------------------------------------------------------------------------*
 Time to read parameters        0.084 (sec)

 *---------------------------------- K-MESH ----------------------------------*
 +----------------------------------------------------------------------------+
 |                    Distance to Nearest-Neighbour Shells                    |
 |                    ------------------------------------                    |
 |          Shell             Distance (Ang^-1)          Multiplicity         |
 |          -----             -----------------          ------------         |
 |             1                   0.387012                     12            |
 |             2                   0.547317                      6            |
 |             3                   0.670324                     24            |
 |             4                   0.774023                     12            |
 |             5                   0.865384                     24            |
 |             6                   0.947981                      8            |
 |             7                   1.023937                     48            |
 |             8                   1.094634                      6            |
 |             9                   1.161035                     36            |
 |            10                   1.223838                     24            |
 |            11                   1.283573                     24            |
 |            12                   1.340648                     24            |
 |            13                   1.395391                     72            |
 |            14                   1.498890                     48            |
 |            15                   1.548047                     12            |
 |            16                   1.595690                     48            |
 |            17                   1.641952                     30            |
 |            18                   1.686945                     72            |
 |            19                   1.730769                     24            |
 |            20                   1.773510                     48            |
 |            21                   1.815246                     24            |
 |            22                   1.856043                     48            |
 |            23                   1.895962                      8            |
 |            24                   1.935059                     84            |
 |            25                   1.973380                     24            |
 |            26                   2.010972                     96            |
 |            27                   2.047873                     48            |
 |            28                   2.084122                     24            |
 |            29                   2.154790                     96            |
 |            30                   2.189269                      6            |
 |            31                   2.223213                     96            |
 |            32                   2.256647                     48            |
 |            33                   2.289592                     48            |
 |            34                   2.322070                     36            |
 |            35                   2.354100                    120            |
 |            36                   2.385700                     24            |
 +----------------------------------------------------------------------------+
 | The b-vectors are chosen automatically                                     |
 | Shell:  1 w_b    1.6691363      (Ang^2)                                    |
 | The following shells are used:   1                                         |
 +----------------------------------------------------------------------------+
 |                        Shell   # Nearest-Neighbours                        |
 |                        -----   --------------------                        |
 |                          1              12                                 |
 +----------------------------------------------------------------------------+
 | Completeness relation is fully satisfied [Eq. (B1), PRB 56, 12847 (1997)]  |
 +----------------------------------------------------------------------------+
 |                  b_k Vectors (Ang^-1) and Weights (Ang^2)                  |
 |                  ----------------------------------------                  |
 |            No.         b_k(x)      b_k(y)      b_k(z)        w_b           |
 |            ---        --------------------------------     --------        |
 |             1         0.000000   -0.273659    0.273659     1.669136        |
 |             2        -0.273659    0.273659    0.000000     1.669136        |
 |             3        -0.273659    0.000000    0.273659     1.669136        |
 |             4         0.273659    0.000000    0.273659     1.669136        |
 |             5         0.000000    0.273659    0.273659     1.669136        |
 |             6         0.000000    0.273659   -0.273659     1.669136        |
 |             7         0.273659    0.273659    0.000000     1.669136        |
 |             8         0.273659   -0.273659    0.000000     1.669136        |
 |             9         0.273659    0.000000   -0.273659     1.669136        |
 |            10        -0.273659    0.000000   -0.273659     1.669136        |
 |            11        -0.273659   -0.273659    0.000000     1.669136        |
 |            12         0.000000   -0.273659   -0.273659     1.669136        |
 +----------------------------------------------------------------------------+
 |                           b_k Directions (Ang^-1)                          |
 |                           -----------------------                          |
 |            No.           x           y           z                         |
 |            ---        --------------------------------                     |
 |             1         0.000000   -0.273659    0.273659                     |
 |             2        -0.273659    0.273659    0.000000                     |
 |             3        -0.273659    0.000000    0.273659                     |
 |             4         0.273659    0.000000    0.273659                     |
 |             5         0.000000    0.273659    0.273659                     |
 |             6         0.273659    0.273659    0.000000                     |
 +----------------------------------------------------------------------------+
  
 Time to get kmesh              1.786 (sec)
 Reading restart information from file Fe.chk :
 written on  3Jul2019 at 16:43:53 ... done


 Time to read and process       0.110 (sec)

 Reading overlaps from Fe.mmn in get_AA_R   :  Created on 25Jun2019 at 18:43:54


 Properties calculated in module  b e r r y
 ------------------------------------------

   * Anomalous Hall conductivity
  
 Interpolation grid: 30 30 30

 Fermi energy (ev):   12.6000

 AHC (S/cm)       x          y          z
 ==========
 J0 term :      0.0000    -0.0001    -2.8661
 J1 term :     -0.0001     0.0001    10.2980
 J2 term :     -0.0087    -0.0046   423.5862
 -------------------------------------------
 Total   :     -0.0088    -0.0045   431.0181


 Total Execution Time         106.372 (sec)

 *===========================================================================*
 |                             TIMING INFORMATION                            |
 *===========================================================================*
 |    Tag                                                Ncalls      Time (s)|
 |---------------------------------------------------------------------------|
 |kmesh: get                                        :         1         1.786|
 *---------------------------------------------------------------------------*


 All done: postw90 exiting

             +---------------------------------------------------+
             |                                                   |
             |                   WANNIER90                       |
             |                                                   |
             +---------------------------------------------------+
             |                                                   |
             |        Welcome to the Maximally-Localized         |
             |        Generalized Wannier Functions code         |
             |            http://www.wannier.org                 |
             |                                                   |
             |                                                   |
             |  Wannier90 Developer Group:                       |
             |    Giovanni Pizzi    (EPFL)                       |
             |    Valerio Vitale    (Cambridge)                  |
             |    David Vanderbilt  (Rutgers University)         |
             |    Nicola Marzari    (EPFL)                       |
             |    Ivo Souza         (Universidad del Pais Vasco) |
             |    Arash A. Mostofi  (Imperial College London)    |
             |    Jonathan R. Yates (University of Oxford)       |
             |                                                   |
             |  For the full list of Wannier90 3.x authors,      |
             |  please check the code documentation and the      |
             |  README on the GitHub page of the code            |
             |                                                   |
             |                                                   |
             |  Please cite                                      |
             |                                                   |
             |  [ref] "An updated version of Wannier90:          |
             |        A Tool for Obtaining Maximally Localised   |
             |        Wannier Functions", A. A. Mostofi,         |
             |        J. R. Yates, G. Pizzi, Y. S. Lee,          |
             |        I. Souza, D. Vanderbilt and N. Marzari,    |
             |        Comput. Phys. Commun. 185, 2309 (2014)     |
             |        http://dx.doi.org/10.1016/j.cpc.2014.05.003|
             |                                                   |
             |  in any publications arising from the use of      |
             |  this code. For the method please cite            |
             |                                                   |
             |  [ref] "Maximally Localized Generalised Wannier   |
             |         Functions for Composite Energy Bands"     |
             |         N. Marzari and D. Vanderbilt              |
             |         Phys. Rev. B 56 12847 (1997)              |
             |                                                   |
             |  [ref] "Maximally Localized Wannier Functions     |
             |         for Entangled Energy Bands"               |
             |         I. Souza, N. Marzari and D. Vanderbilt    |
             |         Phys. Rev. B 65 035109 (2001)             |
             |                                                   |
             |                                                   |
             | Copyright (c) 1996-2019                           |
             |        The Wannier90 Developer Group and          |
             |        individual contributors                    |
             |                                                   |
             |      Release: 3.0.0       27th February 2019      |
             |                                                   |
             | This program is free software; you can            |
             | redistribute it and/or modify it under the terms  |
             | of the GNU General Public License as published by |
             | the Free Software Foundation; either version 2 of |
             | the License, or (at your option) any later version|
             |                                                   |
             | This program is distributed in the hope that it   |
             | will be useful, but WITHOUT ANY WARRANTY; without |
             | even the implied warranty of MERCHANTABILITY or   |
             | FITNESS FOR A PARTICULAR PURPOSE. See the GNU     |
             | General Public License for more details.          |
             |                                                   |
             | You should have received a copy of the GNU General|
             | Public License along with this program; if not,   |
             | write to the Free Software Foundation, Inc.,      |
             | 675 Mass Ave, Cambridge, MA 02139, USA.           |
             |                                                   |
             +---------------------------------------------------+
             |    Execution started on  4Jul2019 at 20:39:26     |
             +---------------------------------------------------+
 
 ******************************************************************************
 * -> Using CODATA 2006 constant values                                       *
 *    (http://physics.nist.gov/cuu/Constants/index.html)                      *
 * -> Using Bohr value from CODATA                                            *
 ******************************************************************************
 

 Running in serial (with serial executable)

                                    ------
                                    SYSTEM
                                    ------

                              Lattice Vectors (Ang)
                    a_1     1.434996   1.434996   1.434996
                    a_2    -1.434996   1.434996   1.434996
                    a_3    -1.434996  -1.434996   1.434996

                   Unit Cell Volume:      11.81986  (Ang^3)

                        Reciprocal-Space Vectors (Ang^-1)
                    b_1     2.189269   0.000000   2.189269
                    b_2    -2.189269   2.189269   0.000000
                    b_3     0.000000  -2.189269   2.189269
  
 *----------------------------------------------------------------------------*
 |   Site       Fractional Coordinate          Cartesian Coordinate (Ang)     |
 +----------------------------------------------------------------------------+
 | Fe   1   0.00000   0.00000   0.00000   |    0.00000   0.00000   0.00000    |
 *----------------------------------------------------------------------------*
  
  
 *-------------------------------- POSTW90 -----------------------------------*
 |  Number of Wannier Functions               :                18             |
 |  Number of electrons per state             :                 1             |
 |  Scissor shift applied to conduction bands :             0.000             |
 |  Number of valence bands                   :       not defined             |
 |  Fermi energy     :      11 steps from   12.000 to   13.000 eV             |
 |  Output verbosity (1=low, 5=high)          :                 2             |
 |  Timing Level (1=low, 5=high)              :                 1             |
 |  Optimisation (0=memory, 3=speed)          :                 3             |
 |  Length Unit                               :               Ang             |
 *----------------------------------------------------------------------------*
 *------------------------ Global Smearing Parameters ------------------------*
 |  Adaptive width smearing                   :                 T             |
 |  Adaptive smearing factor                  :             1.414             |
 |  Maximum allowed smearing width (eV)       :             1.000             |
 |  Smearing Function                                             Gaussian    |
 |  Global interpolation k-points defined     :                 F             |
 *----------------------------------------------------------------------------*
 *----------------------------------------------------------------------------*
 *--------------------------------- BERRY ------------------------------------*
 |  Compute Berry Phase related properties    :                 T             |
 |  Compute Optical Conductivity and JDOS     :                 F             |
 |  Compute Anomalous Hall Conductivity       :                 T             |
 |  Compute Shift Current                     :                 F             |
 |  Compute Orbital Magnetisation             :                 F             |
 |  Compute Spin Hall Conductivity            :                 F             |
 |  Lower frequency for optical responses     :             0.000             |
 |  Upper frequency for optical responses     :            18.667             |
 |  Step size for optical responses           :             0.010             |
 |  Upper eigenvalue for optical responses    :            30.667             |
 |  Using global smearing parameters                                          |
 |  Grid size                                 :    30 x  30 x  30             |
 |  Adaptive refinement                       :              none             |
 *----------------------------------------------------------------------------*
 Time to read parameters        0.083 (sec)

 *---------------------------------- K-MESH ----------------------------------*
 +----------------------------------------------------------------------------+
 |                    Distance to Nearest-Neighbour Shells                    |
 |                    ------------------------------------                    |
 |          Shell             Distance (Ang^-1)          Multiplicity         |
 |          -----             -----------------          ------------         |
 |             1                   0.387012                     12            |
 |             2                   0.547317                      6            |
 |             3                   0.670324                     24            |
 |             4                   0.774023                     12            |
 |             5                   0.865384                     24            |
 |             6                   0.947981                      8            |
 |             7                   1.023937                     48            |
 |             8                   1.094634                      6            |
 |             9                   1.161035                     36            |
 |            10                   1.223838                     24            |
 |            11                   1.283573                     24            |
 |            12                   1.340648                     24            |
 |            13                   1.395391                     72            |
 |            14                   1.498890                     48            |
 |            15                   1.548047                     12            |
 |            16                   1.595690                     48            |
 |            17                   1.641952                     30            |
 |            18                   1.686945                     72            |
 |            19                   1.730769                     24            |
 |            20                   1.773510                     48            |
 |            21                   1.815246                     24            |
 |            22                   1.856043                     48            |
 |            23                   1.895962                      8            |
 |            24                   1.935059                     84            |
 |            25                   1.973380                     24            |
 |            26                   2.010972                     96            |
 |            27                   2.047873                     48            |
 |            28                   2.084122                     24            |
 |            29                   2.154790                     96            |
 |            30                   2.189269                      6            |
 |            31                   2.223213                     96            |
 |            32                   2.256647                     48            |
 |            33                   2.289592                     48            |
 |            34                   2.322070                     36            |
 |            35                   2.354100                    120            |
 |            36                   2.385700                     24            |
 +----------------------------------------------------------------------------+
 | The b-vectors are chosen automatically                                     |
 | Shell:  1 w_b    1.6691363      (Ang^2)                                    |
 | The following shells are used:   1                                         |
 +----------------------------------------------------------------------------+
 |                        Shell   # Nearest-Neighbours                        |
 |                        -----   --------------------                        |
 |                          1              12                                 |
 +----------------------------------------------------------------------------+
 | Completeness relation is fully satisfied [Eq. (B1), PRB 56, 12847 (1997)]  |
 +----------------------------------------------------------------------------+
 |                  b_k Vectors (Ang^-1) and Weights (Ang^2)                  |
 |                  ----------------------------------------                  |
 |            No.         b_k(x)      b_k(y)      b_k(z)        w_b           |
 |            ---        --------------------------------     --------        |
 |             1         0.000000   -0.273659    0.273659     1.669136        |
 |             2        -0.273659    0.273659    0.000000     1.669136        |
 |             3        -0.273659    0.000000    0.273659     1.669136        |
 |             4         0.273659    0.000000    0.273659     1.669136        |
 |             5         0.000000    0.273659    0.273659     1.669136        |
 |             6         0.000000    0.273659   -0.273659     1.669136        |
 |             7         0.273659    0.273659    0.000000     1.669136        |
 |             8         0.273659   -0.273659    0.000000     1.669136        |
 |             9         0.273659    0.000000   -0.273659     1.669136        |
 |            10        -0.273659    0.000000   -0.273659     1.669136        |
 |            11        -0.273659   -0.273659    0.000000     1.669136        |
 |            12         0.000000   -0.273659   -0.273659     1.669136        |
 +----------------------------------------------------------------------------+
 |                           b_k Directions (Ang^-1)                          |
 |                           -----------------------                          |
 |            No.           x           y           z                         |
 |            ---        --------------------------------                     |
 |             1         0.000000   -0.273659    0.273659                     |
 |             2        -0.273659    0.273659    0.000000                     |
 |             3        -0.273659    0.000000    0.273659                     |
 |             4         0.273659    0.000000    0.273659                     |
 |             5         0.000000    0.273659    0.273659                     |
 |             6         0.273659    0.273659    0.000000                     |
 +----------------------------------------------------------------------------+
  
 Time to get kmesh              1.743 (sec)
 Reading restart information from file Fe.chk :
 written on  3Jul2019 at 16:43:53 ... done


 Time to read and process       0.104 (sec)

 Reading overlaps from Fe.mmn in get_AA_R   :  Created on 25Jun2019 at 18:43:54


 Properties calculated in module  b e r r y
 ------------------------------------------

   * Anomalous Hall conductivity
  
 Interpolation grid: 30 30 30

 ---------------------------------
 Output data files related to AHC:
 ---------------------------------

   * Fe-ahc-fermiscan.dat    

 Fermi energy (ev):   12.0000
  Points triggering refinement:   88( 0.33%)

 AHC (S/cm)       x          y          z
 ==========
 J0 term :      0.0000    -0.0002    -1.9457
 J1 term :     -0.0001     0.0003     8.8643
 J2 term :     -0.0211    -0.0216  -674.4087
 -------------------------------------------
 Total   :     -0.0211    -0.0216  -667.4902


 Fermi energy (ev):   12.1000
  Points triggering refinement:   16( 0.06%)

 AHC (S/cm)       x          y          z
 ==========
 J0 term :      0.0000    -0.0001    -2.1805
 J1 term :     -0.0001     0.0002     8.9314
 J2 term :      0.0163    -0.0467   -82.0387
 -------------------------------------------
 Total   :      0.0163    -0.0466   -75.2878


 Fermi energy (ev):   12.2000
  Points triggering refinement:   40( 0.15%)

 AHC (S/cm)       x          y          z
 ==========
 J0 term :      0.0000    -0.0001    -2.2876
 J1 term :     -0.0001     0.0002     9.6077
 J2 term :     -0.0139    -0.0351   462.4415
 -------------------------------------------
 Total   :     -0.0140    -0.0350   469.7615


 Fermi energy (ev):   12.3000
  Points triggering refinement:   16( 0.06%)

 AHC (S/cm)       x          y          z
 ==========
 J0 term :      0.0000    -0.0001    -2.2835
 J1 term :     -0.0001     0.0002     8.8266
 J2 term :     -0.0003    -0.0104   578.0397
 -------------------------------------------
 Total   :     -0.0003    -0.0104   584.5828


 Fermi energy (ev):   12.4000
  Points triggering refinement:    8( 0.03%)

 AHC (S/cm)       x          y          z
 ==========
 J0 term :      0.0000    -0.0001    -2.4534
 J1 term :     -0.0001     0.0002     9.5378
 J2 term :     -0.0032    -0.0021   483.3638
 -------------------------------------------
 Total   :     -0.0032    -0.0020   490.4482


 Fermi energy (ev):   12.5000
  Points triggering refinement:   40( 0.15%)

 AHC (S/cm)       x          y          z
 ==========
 J0 term :      0.0000    -0.0001    -2.6984
 J1 term :     -0.0001     0.0002    10.8699
 J2 term :     -0.0030    -0.0145   385.7406
 -------------------------------------------
 Total   :     -0.0031    -0.0145   393.9121


 Fermi energy (ev):   12.6000
  Points triggering refinement:    0( 0.00%)

 AHC (S/cm)       x          y          z
 ==========
 J0 term :      0.0000    -0.0001    -2.8661
 J1 term :     -0.0001     0.0001    10.2980
 J2 term :     -0.0087    -0.0046   423.5862
 -------------------------------------------
 Total   :     -0.0088    -0.0045   431.0181


 Fermi energy (ev):   12.7000
  Points triggering refinement:   32( 0.12%)

 AHC (S/cm)       x          y          z
 ==========
 J0 term :      0.0000    -0.0001    -3.0166
 J1 term :     -0.0001     0.0001    11.0173
 J2 term :     -0.0040    -0.0067  1025.9040
 -------------------------------------------
 Total   :     -0.0041    -0.0066  1033.9048


 Fermi energy (ev):   12.8000
  Points triggering refinement:   24( 0.09%)

 AHC (S/cm)       x          y          z
 ==========
 J0 term :      0.0000    -0.0001    -3.1051
 J1 term :     -0.0000     0.0001    11.8255
 J2 term :      0.0109    -0.0296   723.3528
 -------------------------------------------
 Total   :      0.0109    -0.0296   732.0733


 Fermi energy (ev):   12.9000
  Points triggering refinement:   16( 0.06%)

 AHC (S/cm)       x          y          z
 ==========
 J0 term :      0.0000    -0.0001    -3.1904
 J1 term :     -0.0000     0.0001     9.5114
 J2 term :     -0.0163     0.0009   239.4386
 -------------------------------------------
 Total   :     -0.0164     0.0010   245.7596


 Fermi energy (ev):   13.0000
  Points triggering refinement:   16( 0.06%)

 AHC (S/cm)       x          y          z
 ==========
 J0 term :      0.0000    -0.0001    -3.2045
 J1 term :     -0.0000     0.0001     9.5393
 J2 term :     -0.0006    -0.0040   472.2398
 -------------------------------------------
 Total   :     -0.0006    -0.0040   478.5746


 Total Execution Time         127.073 (sec)

 *===========================================================================*
 |                             TIMING INFORMATION                            |
 *===========================================================================*
 |    Tag                                                Ncalls      Time (s)|
 |---------------------------------------------------------------------------|
 |kmesh: get                                        :         1         1.743|
 *---------------------------------------------------------------------------*


 All done: postw90 exiting

             +---------------------------------------------------+
             |                                                   |
             |                   WANNIER90                       |
             |                                                   |
             +---------------------------------------------------+
             |                                                   |
             |        Welcome to the Maximally-Localized         |
             |        Generalized Wannier Functions code         |
             |            http://www.wannier.org                 |
             |                                                   |
             |                                                   |
             |  Wannier90 Developer Group:                       |
             |    Giovanni Pizzi    (EPFL)                       |
             |    Valerio Vitale    (Cambridge)                  |
             |    David Vanderbilt  (Rutgers University)         |
             |    Nicola Marzari    (EPFL)                       |
             |    Ivo Souza         (Universidad del Pais Vasco) |
             |    Arash A. Mostofi  (Imperial College London)    |
             |    Jonathan R. Yates (University of Oxford)       |
             |                                                   |
             |  For the full list of Wannier90 3.x authors,      |
             |  please check the code documentation and the      |
             |  README on the GitHub page of the code            |
             |                                                   |
             |                                                   |
             |  Please cite                                      |
             |                                                   |
             |  [ref] "An updated version of Wannier90:          |
             |        A Tool for Obtaining Maximally Localised   |
             |        Wannier Functions", A. A. Mostofi,         |
             |        J. R. Yates, G. Pizzi, Y. S. Lee,          |
             |        I. Souza, D. Vanderbilt and N. Marzari,    |
             |        Comput. Phys. Commun. 185, 2309 (2014)     |
             |        http://dx.doi.org/10.1016/j.cpc.2014.05.003|
             |                                                   |
             |  in any publications arising from the use of      |
             |  this code. For the method please cite            |
             |                                                   |
             |  [ref] "Maximally Localized Generalised Wannier   |
             |         Functions for Composite Energy Bands"     |
             |         N. Marzari and D. Vanderbilt              |
             |         Phys. Rev. B 56 12847 (1997)              |
             |                                                   |
             |  [ref] "Maximally Localized Wannier Functions     |
             |         for Entangled Energy Bands"               |
             |         I. Souza, N. Marzari and D. Vanderbilt    |
             |         Phys. Rev. B 65 035109 (2001)             |
             |                                                   |
             |                                                   |
             | Copyright (c) 1996-2019                           |
             |        The Wannier90 Developer Group and          |
             |        individual contributors                    |
             |                                                   |
             |      Release: 3.0.0       27th February 2019      |
             |                                                   |
             | This program is free software; you can            |
             | redistribute it and/or modify it under the terms  |
             | of the GNU General Public License as published by |
             | the Free Software Foundation; either version 2 of |
             | the License, or (at your option) any later version|
             |                                                   |
             | This program is distributed in the hope that it   |
             | will be useful, but WITHOUT ANY WARRANTY; without |
             | even the implied warranty of MERCHANTABILITY or   |
             | FITNESS FOR A PARTICULAR PURPOSE. See the GNU     |
             | General Public License for more details.          |
             |                                                   |
             | You should have received a copy of the GNU General|
             | Public License along with this program; if not,   |
             | write to the Free Software Foundation, Inc.,      |
             | 675 Mass Ave, Cambridge, MA 02139, USA.           |
             |                                                   |
             +---------------------------------------------------+
             |    Execution started on  4Jul2019 at 20:41:33     |
             +---------------------------------------------------+
 
 ******************************************************************************
 * -> Using CODATA 2006 constant values                                       *
 *    (http://physics.nist.gov/cuu/Constants/index.html)                      *
 * -> Using Bohr value from CODATA                                            *
 ******************************************************************************
 

 Running in serial (with serial executable)

                                    ------
                                    SYSTEM
                                    ------

                              Lattice Vectors (Ang)
                    a_1     1.434996   1.434996   1.434996
                    a_2    -1.434996   1.434996   1.434996
                    a_3    -1.434996  -1.434996   1.434996

                   Unit Cell Volume:      11.81986  (Ang^3)

                        Reciprocal-Space Vectors (Ang^-1)
                    b_1     2.189269   0.000000   2.189269
                    b_2    -2.189269   2.189269   0.000000
                    b_3     0.000000  -2.189269   2.189269
  
 *----------------------------------------------------------------------------*
 |   Site       Fractional Coordinate          Cartesian Coordinate (Ang)     |
 +----------------------------------------------------------------------------+
 | Fe   1   0.00000   0.00000   0.00000   |    0.00000   0.00000   0.00000    |
 *----------------------------------------------------------------------------*
  
  
 *-------------------------------- POSTW90 -----------------------------------*
 |  Number of Wannier Functions               :                18             |
 |  Number of electrons per state             :                 1             |
 |  Scissor shift applied to conduction bands :             0.000             |
 |  Number of valence bands                   :       not defined             |
 |  Fermi energy     :      41 steps from   12.000 to   13.000 eV             |
 |  Output verbosity (1=low, 5=high)          :                 2             |
 |  Timing Level (1=low, 5=high)              :                 1             |
 |  Optimisation (0=memory, 3=speed)          :                 3             |
 |  Length Unit                               :               Ang             |
 *----------------------------------------------------------------------------*
 *------------------------ Global Smearing Parameters ------------------------*
 |  Adaptive width smearing                   :                 T             |
 |  Adaptive smearing factor                  :             1.414             |
 |  Maximum allowed smearing width (eV)       :             1.000             |
 |  Smearing Function                                             Gaussian    |
 |  Global interpolation k-points defined     :                 F             |
 *----------------------------------------------------------------------------*
 *----------------------------------------------------------------------------*
 *--------------------------------- BERRY ------------------------------------*
 |  Compute Berry Phase related properties    :                 T             |
 |  Compute Optical Conductivity and JDOS     :                 F             |
 |  Compute Anomalous Hall Conductivity       :                 T             |
 |  Compute Shift Current                     :                 F             |
 |  Compute Orbital Magnetisation             :                 F             |
 |  Compute Spin Hall Conductivity            :                 F             |
 |  Lower frequency for optical responses     :             0.000             |
 |  Upper frequency for optical responses     :            18.667             |
 |  Step size for optical responses           :             0.010             |
 |  Upper eigenvalue for optical responses    :            30.667             |
 |  Using global smearing parameters                                          |
 |  Grid size                                 :    30 x  30 x  30             |
 |  Adaptive refinement                       :              none             |
 *----------------------------------------------------------------------------*
 Time to read parameters        0.085 (sec)

 *---------------------------------- K-MESH ----------------------------------*
 +----------------------------------------------------------------------------+
 |                    Distance to Nearest-Neighbour Shells                    |
 |                    ------------------------------------                    |
 |          Shell             Distance (Ang^-1)          Multiplicity         |
 |          -----             -----------------          ------------         |
 |             1                   0.387012                     12            |
 |             2                   0.547317                      6            |
 |             3                   0.670324                     24            |
 |             4                   0.774023                     12            |
 |             5                   0.865384                     24            |
 |             6                   0.947981                      8            |
 |             7                   1.023937                     48            |
 |             8                   1.094634                      6            |
 |             9                   1.161035                     36            |
 |            10                   1.223838                     24            |
 |            11                   1.283573                     24            |
 |            12                   1.340648                     24            |
 |            13                   1.395391                     72            |
 |            14                   1.498890                     48            |
 |            15                   1.548047                     12            |
 |            16                   1.595690                     48            |
 |            17                   1.641952                     30            |
 |            18                   1.686945                     72            |
 |            19                   1.730769                     24            |
 |            20                   1.773510                     48            |
 |            21                   1.815246                     24            |
 |            22                   1.856043                     48            |
 |            23                   1.895962                      8            |
 |            24                   1.935059                     84            |
 |            25                   1.973380                     24            |
 |            26                   2.010972                     96            |
 |            27                   2.047873                     48            |
 |            28                   2.084122                     24            |
 |            29                   2.154790                     96            |
 |            30                   2.189269                      6            |
 |            31                   2.223213                     96            |
 |            32                   2.256647                     48            |
 |            33                   2.289592                     48            |
 |            34                   2.322070                     36            |
 |            35                   2.354100                    120            |
 |            36                   2.385700                     24            |
 +----------------------------------------------------------------------------+
 | The b-vectors are chosen automatically                                     |
 | Shell:  1 w_b    1.6691363      (Ang^2)                                    |
 | The following shells are used:   1                                         |
 +----------------------------------------------------------------------------+
 |                        Shell   # Nearest-Neighbours                        |
 |                        -----   --------------------                        |
 |                          1              12                                 |
 +----------------------------------------------------------------------------+
 | Completeness relation is fully satisfied [Eq. (B1), PRB 56, 12847 (1997)]  |
 +----------------------------------------------------------------------------+
 |                  b_k Vectors (Ang^-1) and Weights (Ang^2)                  |
 |                  ----------------------------------------                  |
 |            No.         b_k(x)      b_k(y)      b_k(z)        w_b           |
 |            ---        --------------------------------     --------        |
 |             1         0.000000   -0.273659    0.273659     1.669136        |
 |             2        -0.273659    0.273659    0.000000     1.669136        |
 |             3        -0.273659    0.000000    0.273659     1.669136        |
 |             4         0.273659    0.000000    0.273659     1.669136        |
 |             5         0.000000    0.273659    0.273659     1.669136        |
 |             6         0.000000    0.273659   -0.273659     1.669136        |
 |             7         0.273659    0.273659    0.000000     1.669136        |
 |             8         0.273659   -0.273659    0.000000     1.669136        |
 |             9         0.273659    0.000000   -0.273659     1.669136        |
 |            10        -0.273659    0.000000   -0.273659     1.669136        |
 |            11        -0.273659   -0.273659    0.000000     1.669136        |
 |            12         0.000000   -0.273659   -0.273659     1.669136        |
 +----------------------------------------------------------------------------+
 |                           b_k Directions (Ang^-1)                          |
 |                           -----------------------                          |
 |            No.           x           y           z                         |
 |            ---        --------------------------------                     |
 |             1         0.000000   -0.273659    0.273659                     |
 |             2        -0.273659    0.273659    0.000000                     |
 |             3        -0.273659    0.000000    0.273659                     |
 |             4         0.273659    0.000000    0.273659                     |
 |             5         0.000000    0.273659    0.273659                     |
 |             6         0.273659    0.273659    0.000000                     |
 +----------------------------------------------------------------------------+
  
 Time to get kmesh              1.733 (sec)
 Reading restart information from file Fe.chk :
 written on  3Jul2019 at 16:43:53 ... done


 Time to read and process       0.103 (sec)

 Reading overlaps from Fe.mmn in get_AA_R   :  Created on 25Jun2019 at 18:43:54


 Properties calculated in module  b e r r y
 ------------------------------------------

   * Anomalous Hall conductivity
  
 Interpolation grid: 30 30 30

 ---------------------------------
 Output data files related to AHC:
 ---------------------------------

   * Fe-ahc-fermiscan.dat    

 Fermi energy (ev):   12.0000
  Points triggering refinement:   88( 0.33%)

 AHC (S/cm)       x          y          z
 ==========
 J0 term :      0.0000    -0.0002    -1.9457
 J1 term :     -0.0001     0.0003     8.8643
 J2 term :     -0.0211    -0.0216  -674.4087
 -------------------------------------------
 Total   :     -0.0211    -0.0216  -667.4902


 Fermi energy (ev):   12.0250
  Points triggering refinement:   48( 0.18%)

 AHC (S/cm)       x          y          z
 ==========
 J0 term :      0.0000    -0.0002    -2.0350
 J1 term :     -0.0001     0.0003     8.3102
 J2 term :     -0.0056    -0.0367  -404.7622
 -------------------------------------------
 Total   :     -0.0056    -0.0366  -398.4870


 Fermi energy (ev):   12.0500
  Points triggering refinement:   16( 0.06%)

 AHC (S/cm)       x          y          z
 ==========
 J0 term :      0.0000    -0.0002    -2.0584
 J1 term :     -0.0001     0.0003     7.8226
 J2 term :     -0.0740     0.0284   264.2874
 -------------------------------------------
 Total   :     -0.0740     0.0285   270.0517


 Fermi energy (ev):   12.0750
  Points triggering refinement:   16( 0.06%)

 AHC (S/cm)       x          y          z
 ==========
 J0 term :      0.0000    -0.0001    -2.1480
 J1 term :     -0.0001     0.0003     8.4571
 J2 term :      0.0072    -0.0197  -114.0654
 -------------------------------------------
 Total   :      0.0072    -0.0196  -107.7562


 Fermi energy (ev):   12.1000
  Points triggering refinement:   16( 0.06%)

 AHC (S/cm)       x          y          z
 ==========
 J0 term :      0.0000    -0.0001    -2.1805
 J1 term :     -0.0001     0.0002     8.9314
 J2 term :      0.0163    -0.0467   -82.0387
 -------------------------------------------
 Total   :      0.0163    -0.0466   -75.2878


 Fermi energy (ev):   12.1250
  Points triggering refinement:    8( 0.03%)

 AHC (S/cm)       x          y          z
 ==========
 J0 term :      0.0000    -0.0001    -2.2384
 J1 term :     -0.0001     0.0003     9.1713
 J2 term :      0.0004    -0.0063   118.3470
 -------------------------------------------
 Total   :      0.0004    -0.0062   125.2799


 Fermi energy (ev):   12.1500
  Points triggering refinement:    0( 0.00%)

 AHC (S/cm)       x          y          z
 ==========
 J0 term :      0.0000    -0.0001    -2.2433
 J1 term :     -0.0001     0.0002     9.2066
 J2 term :     -0.0001    -0.0088   218.7284
 -------------------------------------------
 Total   :     -0.0001    -0.0087   225.6917


 Fermi energy (ev):   12.1750
  Points triggering refinement:    8( 0.03%)

 AHC (S/cm)       x          y          z
 ==========
 J0 term :      0.0000    -0.0001    -2.2657
 J1 term :     -0.0001     0.0002     9.0281
 J2 term :      0.0019    -0.0172   403.6665
 -------------------------------------------
 Total   :      0.0018    -0.0171   410.4289


 Fermi energy (ev):   12.2000
  Points triggering refinement:   40( 0.15%)

 AHC (S/cm)       x          y          z
 ==========
 J0 term :      0.0000    -0.0001    -2.2876
 J1 term :     -0.0001     0.0002     9.6077
 J2 term :     -0.0139    -0.0351   462.4415
 -------------------------------------------
 Total   :     -0.0140    -0.0350   469.7615


 Fermi energy (ev):   12.2250
  Points triggering refinement:   32( 0.12%)

 AHC (S/cm)       x          y          z
 ==========
 J0 term :      0.0000    -0.0001    -2.2192
 J1 term :     -0.0001     0.0002     9.6168
 J2 term :     -0.0534     0.7445  4207.0861
 -------------------------------------------
 Total   :     -0.0535     0.7446  4214.4836


 Fermi energy (ev):   12.2500
  Points triggering refinement:   32( 0.12%)

 AHC (S/cm)       x          y          z
 ==========
 J0 term :      0.0000    -0.0001    -2.2953
 J1 term :     -0.0001     0.0002     9.7979
 J2 term :     -0.0200    -0.0160   246.6845
 -------------------------------------------
 Total   :     -0.0200    -0.0159   254.1871


 Fermi energy (ev):   12.2750
  Points triggering refinement:   32( 0.12%)

 AHC (S/cm)       x          y          z
 ==========
 J0 term :      0.0000    -0.0001    -2.2755
 J1 term :     -0.0001     0.0002     9.3125
 J2 term :      0.0005    -0.0058   415.8274
 -------------------------------------------
 Total   :      0.0004    -0.0058   422.8644


 Fermi energy (ev):   12.3000
  Points triggering refinement:   16( 0.06%)

 AHC (S/cm)       x          y          z
 ==========
 J0 term :      0.0000    -0.0001    -2.2835
 J1 term :     -0.0001     0.0002     8.8266
 J2 term :     -0.0003    -0.0104   578.0397
 -------------------------------------------
 Total   :     -0.0003    -0.0104   584.5828


 Fermi energy (ev):   12.3250
  Points triggering refinement:   24( 0.09%)

 AHC (S/cm)       x          y          z
 ==========
 J0 term :      0.0000    -0.0001    -2.2016
 J1 term :     -0.0001     0.0002     8.5359
 J2 term :     -0.0078    -0.0198  1009.7118
 -------------------------------------------
 Total   :     -0.0079    -0.0197  1016.0461


 Fermi energy (ev):   12.3500
  Points triggering refinement:    8( 0.03%)

 AHC (S/cm)       x          y          z
 ==========
 J0 term :      0.0000    -0.0001    -2.3032
 J1 term :     -0.0001     0.0002     9.0136
 J2 term :     -0.0073    -0.0154   718.5082
 -------------------------------------------
 Total   :     -0.0074    -0.0153   725.2185


 Fermi energy (ev):   12.3750
  Points triggering refinement:   16( 0.06%)

 AHC (S/cm)       x          y          z
 ==========
 J0 term :      0.0000    -0.0001    -2.4063
 J1 term :     -0.0001     0.0001     9.4468
 J2 term :     -0.0024    -0.0110   517.9190
 -------------------------------------------
 Total   :     -0.0025    -0.0109   524.9596


 Fermi energy (ev):   12.4000
  Points triggering refinement:    8( 0.03%)

 AHC (S/cm)       x          y          z
 ==========
 J0 term :      0.0000    -0.0001    -2.4534
 J1 term :     -0.0001     0.0002     9.5378
 J2 term :     -0.0032    -0.0021   483.3638
 -------------------------------------------
 Total   :     -0.0032    -0.0020   490.4482


 Fermi energy (ev):   12.4250
  Points triggering refinement:   40( 0.15%)

 AHC (S/cm)       x          y          z
 ==========
 J0 term :      0.0000    -0.0001    -2.5102
 J1 term :     -0.0001     0.0001    10.0218
 J2 term :      0.0068    -0.0070   293.4975
 -------------------------------------------
 Total   :      0.0068    -0.0070   301.0090


 Fermi energy (ev):   12.4500
  Points triggering refinement:   48( 0.18%)

 AHC (S/cm)       x          y          z
 ==========
 J0 term :      0.0000    -0.0001    -2.5651
 J1 term :     -0.0001     0.0002    10.3295
 J2 term :      0.1313     0.8624  4210.8930
 -------------------------------------------
 Total   :      0.1313     0.8625  4218.6574


 Fermi energy (ev):   12.4750
  Points triggering refinement:   32( 0.12%)

 AHC (S/cm)       x          y          z
 ==========
 J0 term :      0.0000    -0.0001    -2.6430
 J1 term :     -0.0001     0.0002    10.5083
 J2 term :      0.0006    -0.0101   485.7215
 -------------------------------------------
 Total   :      0.0005    -0.0100   493.5868


 Fermi energy (ev):   12.5000
  Points triggering refinement:   40( 0.15%)

 AHC (S/cm)       x          y          z
 ==========
 J0 term :      0.0000    -0.0001    -2.6984
 J1 term :     -0.0001     0.0002    10.8699
 J2 term :     -0.0030    -0.0145   385.7406
 -------------------------------------------
 Total   :     -0.0031    -0.0145   393.9121


 Fermi energy (ev):   12.5250
  Points triggering refinement:   32( 0.12%)

 AHC (S/cm)       x          y          z
 ==========
 J0 term :      0.0000    -0.0001    -2.7447
 J1 term :     -0.0001     0.0001    11.0787
 J2 term :     -0.0049     0.0000   508.3320
 -------------------------------------------
 Total   :     -0.0049     0.0001   516.6660


 Fermi energy (ev):   12.5500
  Points triggering refinement:    0( 0.00%)

 AHC (S/cm)       x          y          z
 ==========
 J0 term :      0.0000    -0.0001    -2.7843
 J1 term :     -0.0001     0.0001    10.6530
 J2 term :     -0.0042    -0.0087   482.9719
 -------------------------------------------
 Total   :     -0.0043    -0.0086   490.8406


 Fermi energy (ev):   12.5750
  Points triggering refinement:   48( 0.18%)

 AHC (S/cm)       x          y          z
 ==========
 J0 term :      0.0000    -0.0001    -2.8121
 J1 term :     -0.0000     0.0001    10.4388
 J2 term :     -0.1199    -0.0691   471.5721
 -------------------------------------------
 Total   :     -0.1199    -0.0691   479.1988


 Fermi energy (ev):   12.6000
  Points triggering refinement:    0( 0.00%)

 AHC (S/cm)       x          y          z
 ==========
 J0 term :      0.0000    -0.0001    -2.8661
 J1 term :     -0.0001     0.0001    10.2980
 J2 term :     -0.0087    -0.0046   423.5862
 -------------------------------------------
 Total   :     -0.0088    -0.0045   431.0181


 Fermi energy (ev):   12.6250
  Points triggering refinement:   32( 0.12%)

 AHC (S/cm)       x          y          z
 ==========
 J0 term :      0.0000    -0.0001    -2.8869
 J1 term :     -0.0001     0.0001    10.4439
 J2 term :      0.0032     0.0015   691.3978
 -------------------------------------------
 Total   :      0.0032     0.0015   698.9548


 Fermi energy (ev):   12.6500
  Points triggering refinement:   32( 0.12%)

 AHC (S/cm)       x          y          z
 ==========
 J0 term :      0.0000    -0.0001    -2.9488
 J1 term :     -0.0001     0.0001     9.9244
 J2 term :     -0.0003     0.0216  1034.9083
 -------------------------------------------
 Total   :     -0.0004     0.0216  1041.8838


 Fermi energy (ev):   12.6750
  Points triggering refinement:   26( 0.10%)

 AHC (S/cm)       x          y          z
 ==========
 J0 term :      0.0000    -0.0001    -2.9937
 J1 term :     -0.0001     0.0001    10.6480
 J2 term :     -0.0312    -0.0123  1631.8453
 -------------------------------------------
 Total   :     -0.0312    -0.0122  1639.4995


 Fermi energy (ev):   12.7000
  Points triggering refinement:   32( 0.12%)

 AHC (S/cm)       x          y          z
 ==========
 J0 term :      0.0000    -0.0001    -3.0166
 J1 term :     -0.0001     0.0001    11.0173
 J2 term :     -0.0040    -0.0067  1025.9040
 -------------------------------------------
 Total   :     -0.0041    -0.0066  1033.9048


 Fermi energy (ev):   12.7250
  Points triggering refinement:   24( 0.09%)

 AHC (S/cm)       x          y          z
 ==========
 J0 term :      0.0000    -0.0001    -3.0119
 J1 term :     -0.0001     0.0001    10.4954
 J2 term :      0.0051    -0.0067   861.6299
 -------------------------------------------
 Total   :      0.0051    -0.0066   869.1134


 Fermi energy (ev):   12.7500
  Points triggering refinement:   16( 0.06%)

 AHC (S/cm)       x          y          z
 ==========
 J0 term :      0.0000    -0.0001    -3.0276
 J1 term :     -0.0000     0.0001    10.5003
 J2 term :      0.0034    -0.0061   904.8965
 -------------------------------------------
 Total   :      0.0034    -0.0061   912.3691


 Fermi energy (ev):   12.7750
  Points triggering refinement:   16( 0.06%)

 AHC (S/cm)       x          y          z
 ==========
 J0 term :      0.0000    -0.0001    -3.0799
 J1 term :     -0.0000     0.0001    10.9250
 J2 term :      0.0043    -0.0028   900.9993
 -------------------------------------------
 Total   :      0.0043    -0.0028   908.8444


 Fermi energy (ev):   12.8000
  Points triggering refinement:   24( 0.09%)

 AHC (S/cm)       x          y          z
 ==========
 J0 term :      0.0000    -0.0001    -3.1051
 J1 term :     -0.0000     0.0001    11.8255
 J2 term :      0.0109    -0.0296   723.3528
 -------------------------------------------
 Total   :      0.0109    -0.0296   732.0733


 Fermi energy (ev):   12.8250
  Points triggering refinement:   24( 0.09%)

 AHC (S/cm)       x          y          z
 ==========
 J0 term :      0.0000    -0.0001    -3.1170
 J1 term :     -0.0000     0.0001    11.5635
 J2 term :      0.0097    -0.0319   689.2495
 -------------------------------------------
 Total   :      0.0097    -0.0319   697.6959


 Fermi energy (ev):   12.8500
  Points triggering refinement:   40( 0.15%)

 AHC (S/cm)       x          y          z
 ==========
 J0 term :      0.0000    -0.0001    -3.1356
 J1 term :      0.0004     0.0002    11.6010
 J2 term :      1.5457     0.5759 11687.3560
 -------------------------------------------
 Total   :      1.5462     0.5760 11695.8214


 Fermi energy (ev):   12.8750
  Points triggering refinement:   24( 0.09%)

 AHC (S/cm)       x          y          z
 ==========
 J0 term :      0.0000    -0.0001    -3.1522
 J1 term :     -0.0000     0.0001    12.3698
 J2 term :     -0.0049    -0.0614 13021.4194
 -------------------------------------------
 Total   :     -0.0049    -0.0614 13030.6370


 Fermi energy (ev):   12.9000
  Points triggering refinement:   16( 0.06%)

 AHC (S/cm)       x          y          z
 ==========
 J0 term :      0.0000    -0.0001    -3.1904
 J1 term :     -0.0000     0.0001     9.5114
 J2 term :     -0.0163     0.0009   239.4386
 -------------------------------------------
 Total   :     -0.0164     0.0010   245.7596


 Fermi energy (ev):   12.9250
  Points triggering refinement:   24( 0.09%)

 AHC (S/cm)       x          y          z
 ==========
 J0 term :      0.0000    -0.0001    -3.1939
 J1 term :     -0.0000     0.0001     9.5475
 J2 term :     -0.0019    -0.0089   358.4689
 -------------------------------------------
 Total   :     -0.0019    -0.0089   364.8225


 Fermi energy (ev):   12.9500
  Points triggering refinement:   16( 0.06%)

 AHC (S/cm)       x          y          z
 ==========
 J0 term :      0.0000    -0.0001    -3.1951
 J1 term :     -0.0000     0.0001     9.7009
 J2 term :      0.0040    -0.0105   479.5997
 -------------------------------------------
 Total   :      0.0040    -0.0105   486.1056


 Fermi energy (ev):   12.9750
  Points triggering refinement:   16( 0.06%)

 AHC (S/cm)       x          y          z
 ==========
 J0 term :      0.0000    -0.0001    -3.1991
 J1 term :     -0.0000     0.0001     9.6652
 J2 term :      0.0025    -0.0104   476.7233
 -------------------------------------------
 Total   :      0.0025    -0.0104   483.1894


 Fermi energy (ev):   13.0000
  Points triggering refinement:   16( 0.06%)

 AHC (S/cm)       x          y          z
 ==========
 J0 term :      0.0000    -0.0001    -3.2045
 J1 term :     -0.0000     0.0001     9.5393
 J2 term :     -0.0006    -0.0040   472.2398
 -------------------------------------------
 Total   :     -0.0006    -0.0040   478.5746


 Total Execution Time         193.280 (sec)

 *===========================================================================*
 |                             TIMING INFORMATION                            |
 *===========================================================================*
 |    Tag                                                Ncalls      Time (s)|
 |---------------------------------------------------------------------------|
 |kmesh: get                                        :         1         1.733|
 *---------------------------------------------------------------------------*


 All done: postw90 exiting

             +---------------------------------------------------+
             |                                                   |
             |                   WANNIER90                       |
             |                                                   |
             +---------------------------------------------------+
             |                                                   |
             |        Welcome to the Maximally-Localized         |
             |        Generalized Wannier Functions code         |
             |            http://www.wannier.org                 |
             |                                                   |
             |                                                   |
             |  Wannier90 Developer Group:                       |
             |    Giovanni Pizzi    (EPFL)                       |
             |    Valerio Vitale    (Cambridge)                  |
             |    David Vanderbilt  (Rutgers University)         |
             |    Nicola Marzari    (EPFL)                       |
             |    Ivo Souza         (Universidad del Pais Vasco) |
             |    Arash A. Mostofi  (Imperial College London)    |
             |    Jonathan R. Yates (University of Oxford)       |
             |                                                   |
             |  For the full list of Wannier90 3.x authors,      |
             |  please check the code documentation and the      |
             |  README on the GitHub page of the code            |
             |                                                   |
             |                                                   |
             |  Please cite                                      |
             |                                                   |
             |  [ref] "An updated version of Wannier90:          |
             |        A Tool for Obtaining Maximally Localised   |
             |        Wannier Functions", A. A. Mostofi,         |
             |        J. R. Yates, G. Pizzi, Y. S. Lee,          |
             |        I. Souza, D. Vanderbilt and N. Marzari,    |
             |        Comput. Phys. Commun. 185, 2309 (2014)     |
             |        http://dx.doi.org/10.1016/j.cpc.2014.05.003|
             |                                                   |
             |  in any publications arising from the use of      |
             |  this code. For the method please cite            |
             |                                                   |
             |  [ref] "Maximally Localized Generalised Wannier   |
             |         Functions for Composite Energy Bands"     |
             |         N. Marzari and D. Vanderbilt              |
             |         Phys. Rev. B 56 12847 (1997)              |
             |                                                   |
             |  [ref] "Maximally Localized Wannier Functions     |
             |         for Entangled Energy Bands"               |
             |         I. Souza, N. Marzari and D. Vanderbilt    |
             |         Phys. Rev. B 65 035109 (2001)             |
             |                                                   |
             |                                                   |
             | Copyright (c) 1996-2019                           |
             |        The Wannier90 Developer Group and          |
             |        individual contributors                    |
             |                                                   |
             |      Release: 3.0.0       27th February 2019      |
             |                                                   |
             | This program is free software; you can            |
             | redistribute it and/or modify it under the terms  |
             | of the GNU General Public License as published by |
             | the Free Software Foundation; either version 2 of |
             | the License, or (at your option) any later version|
             |                                                   |
             | This program is distributed in the hope that it   |
             | will be useful, but WITHOUT ANY WARRANTY; without |
             | even the implied warranty of MERCHANTABILITY or   |
             | FITNESS FOR A PARTICULAR PURPOSE. See the GNU     |
             | General Public License for more details.          |
             |                                                   |
             | You should have received a copy of the GNU General|
             | Public License along with this program; if not,   |
             | write to the Free Software Foundation, Inc.,      |
             | 675 Mass Ave, Cambridge, MA 02139, USA.           |
             |                                                   |
             +---------------------------------------------------+
             |    Execution started on  4Jul2019 at 20:44:47     |
             +---------------------------------------------------+
 
 ******************************************************************************
 * -> Using CODATA 2006 constant values                                       *
 *    (http://physics.nist.gov/cuu/Constants/index.html)                      *
 * -> Using Bohr value from CODATA                                            *
 ******************************************************************************
 

 Running in serial (with serial executable)

                                    ------
                                    SYSTEM
                                    ------

                              Lattice Vectors (Ang)
                    a_1     1.434996   1.434996   1.434996
                    a_2    -1.434996   1.434996   1.434996
                    a_3    -1.434996  -1.434996   1.434996

                   Unit Cell Volume:      11.81986  (Ang^3)

                        Reciprocal-Space Vectors (Ang^-1)
                    b_1     2.189269   0.000000   2.189269
                    b_2    -2.189269   2.189269   0.000000
                    b_3     0.000000  -2.189269   2.189269
  
 *----------------------------------------------------------------------------*
 |   Site       Fractional Coordinate          Cartesian Coordinate (Ang)     |
 +----------------------------------------------------------------------------+
 | Fe   1   0.00000   0.00000   0.00000   |    0.00000   0.00000   0.00000    |
 *----------------------------------------------------------------------------*
  
  
 *-------------------------------- POSTW90 -----------------------------------*
 |  Number of Wannier Functions               :                18             |
 |  Number of electrons per state             :                 1             |
 |  Scissor shift applied to conduction bands :             0.000             |
 |  Number of valence bands                   :       not defined             |
 |  Fermi energy     :     101 steps from   12.000 to   13.000 eV             |
 |  Output verbosity (1=low, 5=high)          :                 2             |
 |  Timing Level (1=low, 5=high)              :                 1             |
 |  Optimisation (0=memory, 3=speed)          :                 3             |
 |  Length Unit                               :               Ang             |
 *----------------------------------------------------------------------------*
 *------------------------ Global Smearing Parameters ------------------------*
 |  Adaptive width smearing                   :                 T             |
 |  Adaptive smearing factor                  :             1.414             |
 |  Maximum allowed smearing width (eV)       :             1.000             |
 |  Smearing Function                                             Gaussian    |
 |  Global interpolation k-points defined     :                 F             |
 *----------------------------------------------------------------------------*
 *----------------------------------------------------------------------------*
 *--------------------------------- BERRY ------------------------------------*
 |  Compute Berry Phase related properties    :                 T             |
 |  Compute Optical Conductivity and JDOS     :                 F             |
 |  Compute Anomalous Hall Conductivity       :                 T             |
 |  Compute Shift Current                     :                 F             |
 |  Compute Orbital Magnetisation             :                 F             |
 |  Compute Spin Hall Conductivity            :                 F             |
 |  Lower frequency for optical responses     :             0.000             |
 |  Upper frequency for optical responses     :            18.667             |
 |  Step size for optical responses           :             0.010             |
 |  Upper eigenvalue for optical responses    :            30.667             |
 |  Using global smearing parameters                                          |
 |  Grid size                                 :    30 x  30 x  30             |
 |  Adaptive refinement                       :              none             |
 *----------------------------------------------------------------------------*
 Time to read parameters        0.083 (sec)

 *---------------------------------- K-MESH ----------------------------------*
 +----------------------------------------------------------------------------+
 |                    Distance to Nearest-Neighbour Shells                    |
 |                    ------------------------------------                    |
 |          Shell             Distance (Ang^-1)          Multiplicity         |
 |          -----             -----------------          ------------         |
 |             1                   0.387012                     12            |
 |             2                   0.547317                      6            |
 |             3                   0.670324                     24            |
 |             4                   0.774023                     12            |
 |             5                   0.865384                     24            |
 |             6                   0.947981                      8            |
[...]
 -------------------------------------------
 Total   :      0.1249     0.8643  4287.9624


 Fermi energy (ev):   12.4700
  Points triggering refinement:   24( 0.09%)

 AHC (S/cm)       x          y          z
 ==========
 J0 term :      0.0000    -0.0001    -2.6290
 J1 term :     -0.0001     0.0002    10.5149
 J2 term :     -0.0005    -0.0092   520.6423
 -------------------------------------------
 Total   :     -0.0005    -0.0091   528.5283


 Fermi energy (ev):   12.4800
  Points triggering refinement:   32( 0.12%)

 AHC (S/cm)       x          y          z
 ==========
 J0 term :      0.0000    -0.0001    -2.6597
 J1 term :     -0.0001     0.0002    10.3924
 J2 term :     -0.0024    -0.0168   405.6525
 -------------------------------------------
 Total   :     -0.0025    -0.0167   413.3852


 Fermi energy (ev):   12.4900
  Points triggering refinement:   32( 0.12%)

 AHC (S/cm)       x          y          z
 ==========
 J0 term :      0.0000    -0.0001    -2.6877
 J1 term :     -0.0001     0.0018    10.6192
 J2 term :     -0.0146    -0.2029   344.3817
 -------------------------------------------
 Total   :     -0.0147    -0.2011   352.3132


 Fermi energy (ev):   12.5000
  Points triggering refinement:   40( 0.15%)

 AHC (S/cm)       x          y          z
 ==========
 J0 term :      0.0000    -0.0001    -2.6984
 J1 term :     -0.0001     0.0002    10.8699
 J2 term :     -0.0030    -0.0145   385.7406
 -------------------------------------------
 Total   :     -0.0031    -0.0145   393.9121


 Fermi energy (ev):   12.5100
  Points triggering refinement:   40( 0.15%)

 AHC (S/cm)       x          y          z
 ==========
 J0 term :      0.0000    -0.0001    -2.7062
 J1 term :     -0.0001     0.0002    11.0216
 J2 term :     -0.0065    -0.0178   401.5629
 -------------------------------------------
 Total   :     -0.0065    -0.0177   409.8783


 Fermi energy (ev):   12.5200
  Points triggering refinement:   40( 0.15%)

 AHC (S/cm)       x          y          z
 ==========
 J0 term :      0.0000    -0.0001    -2.7344
 J1 term :     -0.0001     0.0001    10.9434
 J2 term :     -0.0010    -0.0084   386.3150
 -------------------------------------------
 Total   :     -0.0010    -0.0083   394.5240


 Fermi energy (ev):   12.5300
  Points triggering refinement:   32( 0.12%)

 AHC (S/cm)       x          y          z
 ==========
 J0 term :      0.0000    -0.0001    -2.7537
 J1 term :     -0.0001     0.0001    11.0570
 J2 term :     -0.0052     0.0005   510.8490
 -------------------------------------------
 Total   :     -0.0052     0.0006   519.1523


 Fermi energy (ev):   12.5400
  Points triggering refinement:    8( 0.03%)

 AHC (S/cm)       x          y          z
 ==========
 J0 term :      0.0000    -0.0001    -2.7752
 J1 term :     -0.0001     0.0001    10.7003
 J2 term :     -0.0101     0.0042   578.2500
 -------------------------------------------
 Total   :     -0.0101     0.0042   586.1751


 Fermi energy (ev):   12.5500
  Points triggering refinement:    0( 0.00%)

 AHC (S/cm)       x          y          z
 ==========
 J0 term :      0.0000    -0.0001    -2.7843
 J1 term :     -0.0001     0.0001    10.6530
 J2 term :     -0.0042    -0.0087   482.9719
 -------------------------------------------
 Total   :     -0.0043    -0.0086   490.8406


 Fermi energy (ev):   12.5600
  Points triggering refinement:   32( 0.12%)

 AHC (S/cm)       x          y          z
 ==========
 J0 term :     -0.0000     0.0000    -2.7918
 J1 term :      0.0030    -0.0006    10.5888
 J2 term :      1.2849    -1.5085   215.1981
 -------------------------------------------
 Total   :      1.2879    -1.5091   222.9950


 Fermi energy (ev):   12.5700
  Points triggering refinement:   48( 0.18%)

 AHC (S/cm)       x          y          z
 ==========
 J0 term :      0.0000    -0.0001    -2.8031
 J1 term :     -0.0000     0.0001    10.5789
 J2 term :     -0.1187    -0.0679   472.9734
 -------------------------------------------
 Total   :     -0.1187    -0.0679   480.7492


 Fermi energy (ev):   12.5800
  Points triggering refinement:   48( 0.18%)

 AHC (S/cm)       x          y          z
 ==========
 J0 term :      0.0000    -0.0001    -2.8181
 J1 term :     -0.0000     0.0001    10.4997
 J2 term :     -0.1244    -0.0741   541.1619
 -------------------------------------------
 Total   :     -0.1245    -0.0741   548.8435


 Fermi energy (ev):   12.5900
  Points triggering refinement:   32( 0.12%)

 AHC (S/cm)       x          y          z
 ==========
 J0 term :      0.0000    -0.0001    -2.8351
 J1 term :     -0.0001     0.0001    10.5621
 J2 term :     -0.0009    -0.0107   248.2208
 -------------------------------------------
 Total   :     -0.0009    -0.0106   255.9478


 Fermi energy (ev):   12.6000
  Points triggering refinement:    0( 0.00%)

 AHC (S/cm)       x          y          z
 ==========
 J0 term :      0.0000    -0.0001    -2.8661
 J1 term :     -0.0001     0.0001    10.2980
 J2 term :     -0.0087    -0.0046   423.5862
 -------------------------------------------
 Total   :     -0.0088    -0.0045   431.0181


 Fermi energy (ev):   12.6100
  Points triggering refinement:    8( 0.03%)

 AHC (S/cm)       x          y          z
 ==========
 J0 term :      0.0000    -0.0001    -2.8750
 J1 term :     -0.0001     0.0001    10.3110
 J2 term :     -0.0129     0.0003   193.5493
 -------------------------------------------
 Total   :     -0.0130     0.0003   200.9852


 Fermi energy (ev):   12.6200
  Points triggering refinement:   24( 0.09%)

 AHC (S/cm)       x          y          z
 ==========
 J0 term :      0.0000    -0.0001    -2.8837
 J1 term :     -0.0001     0.0001    10.3690
 J2 term :     -0.0018    -0.0245   252.6790
 -------------------------------------------
 Total   :     -0.0018    -0.0244   260.1643


 Fermi energy (ev):   12.6300
  Points triggering refinement:   40( 0.15%)

 AHC (S/cm)       x          y          z
 ==========
 J0 term :      0.0000    -0.0001    -2.9143
 J1 term :     -0.0001     0.0001    10.3967
 J2 term :      0.0107     0.0011   805.7013
 -------------------------------------------
 Total   :      0.0107     0.0011   813.1836


 Fermi energy (ev):   12.6400
  Points triggering refinement:   32( 0.12%)

 AHC (S/cm)       x          y          z
 ==========
 J0 term :      0.0000    -0.0001    -2.9225
 J1 term :     -0.0001     0.0001    10.1388
 J2 term :      0.0041     0.0216   699.6977
 -------------------------------------------
 Total   :      0.0040     0.0216   706.9140


 Fermi energy (ev):   12.6500
  Points triggering refinement:   32( 0.12%)

 AHC (S/cm)       x          y          z
 ==========
 J0 term :      0.0000    -0.0001    -2.9488
 J1 term :     -0.0001     0.0001     9.9244
 J2 term :     -0.0003     0.0216  1034.9083
 -------------------------------------------
 Total   :     -0.0004     0.0216  1041.8838


 Fermi energy (ev):   12.6600
  Points triggering refinement:   32( 0.12%)

 AHC (S/cm)       x          y          z
 ==========
 J0 term :      0.0000    -0.0001    -2.9719
 J1 term :     -0.0001     0.0001    11.1113
 J2 term :     -0.0027    -0.0045  1016.8400
 -------------------------------------------
 Total   :     -0.0027    -0.0045  1024.9794


 Fermi energy (ev):   12.6700
  Points triggering refinement:   34( 0.13%)

 AHC (S/cm)       x          y          z
 ==========
 J0 term :      0.0000    -0.0001    -2.9796
 J1 term :     -0.0001     0.0001    10.7266
 J2 term :     -0.0316    -0.0140  1543.3740
 -------------------------------------------
 Total   :     -0.0316    -0.0140  1551.1210


 Fermi energy (ev):   12.6800
  Points triggering refinement:   32( 0.12%)

 AHC (S/cm)       x          y          z
 ==========
 J0 term :      0.0000    -0.0001    -3.0073
 J1 term :     -0.0001     0.0001    10.9272
 J2 term :     -0.0040    -0.0048  1114.6891
 -------------------------------------------
 Total   :     -0.0041    -0.0048  1122.6090


 Fermi energy (ev):   12.6900
  Points triggering refinement:   32( 0.12%)

 AHC (S/cm)       x          y          z
 ==========
 J0 term :      0.0000    -0.0001    -3.0155
 J1 term :     -0.0001     0.0001    11.0948
 J2 term :     -0.0038    -0.0052  1082.8065
 -------------------------------------------
 Total   :     -0.0039    -0.0052  1090.8858


 Fermi energy (ev):   12.7000
  Points triggering refinement:   32( 0.12%)

 AHC (S/cm)       x          y          z
 ==========
 J0 term :      0.0000    -0.0001    -3.0166
 J1 term :     -0.0001     0.0001    11.0173
 J2 term :     -0.0040    -0.0067  1025.9040
 -------------------------------------------
 Total   :     -0.0041    -0.0066  1033.9048


 Fermi energy (ev):   12.7100
  Points triggering refinement:   24( 0.09%)

 AHC (S/cm)       x          y          z
 ==========
 J0 term :      0.0000    -0.0001    -3.0158
 J1 term :     -0.0001     0.0001    10.7129
 J2 term :      0.0038    -0.0054   845.3002
 -------------------------------------------
 Total   :      0.0038    -0.0054   852.9972


 Fermi energy (ev):   12.7200
  Points triggering refinement:   24( 0.09%)

 AHC (S/cm)       x          y          z
 ==========
 J0 term :      0.0000    -0.0001    -3.0204
 J1 term :     -0.0001     0.0001    10.5742
 J2 term :      0.0044    -0.0053   863.1011
 -------------------------------------------
 Total   :      0.0044    -0.0053   870.6548


 Fermi energy (ev):   12.7300
  Points triggering refinement:   24( 0.09%)

 AHC (S/cm)       x          y          z
 ==========
 J0 term :      0.0000    -0.0001    -3.0075
 J1 term :     -0.0001     0.0001    10.4583
 J2 term :      0.0050    -0.0069   854.2253
 -------------------------------------------
 Total   :      0.0050    -0.0069   861.6761


 Fermi energy (ev):   12.7400
  Points triggering refinement:   24( 0.09%)

 AHC (S/cm)       x          y          z
 ==========
 J0 term :      0.0000    -0.0001    -3.0268
 J1 term :     -0.0000     0.0001    10.4544
 J2 term :      0.0054    -0.0072   858.7482
 -------------------------------------------
 Total   :      0.0053    -0.0072   866.1758


 Fermi energy (ev):   12.7500
  Points triggering refinement:   16( 0.06%)

 AHC (S/cm)       x          y          z
 ==========
 J0 term :      0.0000    -0.0001    -3.0276
 J1 term :     -0.0000     0.0001    10.5003
 J2 term :      0.0034    -0.0061   904.8965
 -------------------------------------------
 Total   :      0.0034    -0.0061   912.3691


 Fermi energy (ev):   12.7600
  Points triggering refinement:   16( 0.06%)

 AHC (S/cm)       x          y          z
 ==========
 J0 term :      0.0000    -0.0001    -3.0430
 J1 term :     -0.0001     0.0001    10.6008
 J2 term :     -0.0001    -0.0079   931.8146
 -------------------------------------------
 Total   :     -0.0001    -0.0079   939.3725


 Fermi energy (ev):   12.7700
  Points triggering refinement:   16( 0.06%)

 AHC (S/cm)       x          y          z
 ==========
 J0 term :      0.0000    -0.0001    -3.0594
 J1 term :     -0.0001     0.0001    10.7479
 J2 term :     -0.0054    -0.0049   999.5279
 -------------------------------------------
 Total   :     -0.0055    -0.0049  1007.2164


 Fermi energy (ev):   12.7800
  Points triggering refinement:    8( 0.03%)

 AHC (S/cm)       x          y          z
 ==========
 J0 term :      0.0000    -0.0001    -3.0872
 J1 term :     -0.0000     0.0001     9.7154
 J2 term :      0.0012    -0.0047   424.8673
 -------------------------------------------
 Total   :      0.0012    -0.0047   431.4955


 Fermi energy (ev):   12.7900
  Points triggering refinement:   16( 0.06%)

 AHC (S/cm)       x          y          z
 ==========
 J0 term :      0.0000    -0.0001    -3.0963
 J1 term :     -0.0000     0.0001    11.3420
 J2 term :      0.0017    -0.0169   981.3552
 -------------------------------------------
 Total   :      0.0017    -0.0169   989.6010


 Fermi energy (ev):   12.8000
  Points triggering refinement:   24( 0.09%)

 AHC (S/cm)       x          y          z
 ==========
 J0 term :      0.0000    -0.0001    -3.1051
 J1 term :     -0.0000     0.0001    11.8255
 J2 term :      0.0109    -0.0296   723.3528
 -------------------------------------------
 Total   :      0.0109    -0.0296   732.0733


 Fermi energy (ev):   12.8100
  Points triggering refinement:   24( 0.09%)

 AHC (S/cm)       x          y          z
 ==========
 J0 term :      0.0000    -0.0001    -3.1060
 J1 term :     -0.0000     0.0001    11.5702
 J2 term :      0.0079    -0.0319   679.6889
 -------------------------------------------
 Total   :      0.0079    -0.0319   688.1531


 Fermi energy (ev):   12.8200
  Points triggering refinement:   24( 0.09%)

 AHC (S/cm)       x          y          z
 ==========
 J0 term :      0.0000    -0.0001    -3.1150
 J1 term :     -0.0000     0.0001    11.5619
 J2 term :      0.0097    -0.0319   689.0021
 -------------------------------------------
 Total   :      0.0097    -0.0319   697.4490


 Fermi energy (ev):   12.8300
  Points triggering refinement:   24( 0.09%)

 AHC (S/cm)       x          y          z
 ==========
 J0 term :      0.0000    -0.0001    -3.1166
 J1 term :     -0.0000     0.0001    11.5574
 J2 term :      0.0097    -0.0319   687.0035
 -------------------------------------------
 Total   :      0.0097    -0.0319   695.4443


 Fermi energy (ev):   12.8400
  Points triggering refinement:   24( 0.09%)

 AHC (S/cm)       x          y          z
 ==========
 J0 term :      0.0000    -0.0001    -3.1230
 J1 term :     -0.0000     0.0001    11.8981
 J2 term :     -0.0371    -0.0803   655.6303
 -------------------------------------------
 Total   :     -0.0371    -0.0803   664.4054


 Fermi energy (ev):   12.8500
  Points triggering refinement:   40( 0.15%)

 AHC (S/cm)       x          y          z
 ==========
 J0 term :      0.0000    -0.0001    -3.1356
 J1 term :      0.0004     0.0002    11.6010
 J2 term :      1.5457     0.5759 11687.3560
 -------------------------------------------
 Total   :      1.5462     0.5760 11695.8214


 Fermi energy (ev):   12.8600
  Points triggering refinement:   37( 0.14%)

 AHC (S/cm)       x          y          z
 ==========
 J0 term :      0.0000    -0.0001    -3.1391
 J1 term :     -0.0049     0.0018    11.5497
 J2 term :    -23.8101     8.8568 11750.3470
 -------------------------------------------
 Total   :    -23.8150     8.8585 11758.7576


 Fermi energy (ev):   12.8700
  Points triggering refinement:   24( 0.09%)

 AHC (S/cm)       x          y          z
 ==========
 J0 term :      0.0000    -0.0001    -3.1518
 J1 term :     -0.0000     0.0001    12.3798
 J2 term :     -0.0048    -0.0615 13020.7990
 -------------------------------------------
 Total   :     -0.0049    -0.0614 13030.0270


 Fermi energy (ev):   12.8800
  Points triggering refinement:   16( 0.06%)

 AHC (S/cm)       x          y          z
 ==========
 J0 term :      0.0000    -0.0001    -3.1655
 J1 term :     -0.0000     0.0001     9.4106
 J2 term :     -0.0135     0.0003   269.3141
 -------------------------------------------
 Total   :     -0.0135     0.0003   275.5591


 Fermi energy (ev):   12.8900
  Points triggering refinement:   16( 0.06%)

 AHC (S/cm)       x          y          z
 ==========
 J0 term :      0.0000    -0.0001    -3.1721
 J1 term :     -0.0000     0.0001     9.4285
 J2 term :     -0.0135     0.0006   262.5195
 -------------------------------------------
 Total   :     -0.0135     0.0006   268.7759


 Fermi energy (ev):   12.9000
  Points triggering refinement:   16( 0.06%)

 AHC (S/cm)       x          y          z
 ==========
 J0 term :      0.0000    -0.0001    -3.1904
 J1 term :     -0.0000     0.0001     9.5114
 J2 term :     -0.0163     0.0009   239.4386
 -------------------------------------------
 Total   :     -0.0164     0.0010   245.7596


 Fermi energy (ev):   12.9100
  Points triggering refinement:   24( 0.09%)

 AHC (S/cm)       x          y          z
 ==========
 J0 term :      0.0000    -0.0001    -3.1808
 J1 term :     -0.0000     0.0001     9.6466
 J2 term :     -0.0049    -0.0023   360.7009
 -------------------------------------------
 Total   :     -0.0049    -0.0023   367.1667


 Fermi energy (ev):   12.9200
  Points triggering refinement:   24( 0.09%)

 AHC (S/cm)       x          y          z
 ==========
 J0 term :      0.0000    -0.0001    -3.1893
 J1 term :     -0.0000     0.0001     9.6600
 J2 term :     -0.0048    -0.0023   357.8607
 -------------------------------------------
 Total   :     -0.0048    -0.0023   364.3314


 Fermi energy (ev):   12.9300
  Points triggering refinement:    8( 0.03%)

 AHC (S/cm)       x          y          z
 ==========
 J0 term :      0.0000    -0.0001    -3.1966
 J1 term :     -0.0000     0.0001     9.8045
 J2 term :      0.0038    -0.0103   456.6586
 -------------------------------------------
 Total   :      0.0038    -0.0103   463.2664


 Fermi energy (ev):   12.9400
  Points triggering refinement:    8( 0.03%)

 AHC (S/cm)       x          y          z
 ==========
 J0 term :      0.0000    -0.0001    -3.1937
 J1 term :     -0.0000     0.0001     9.7534
 J2 term :      0.0038    -0.0101   468.2564
 -------------------------------------------
 Total   :      0.0038    -0.0100   474.8160


 Fermi energy (ev):   12.9500
  Points triggering refinement:   16( 0.06%)

 AHC (S/cm)       x          y          z
 ==========
 J0 term :      0.0000    -0.0001    -3.1951
 J1 term :     -0.0000     0.0001     9.7009
 J2 term :      0.0040    -0.0105   479.5997
 -------------------------------------------
 Total   :      0.0040    -0.0105   486.1056


 Fermi energy (ev):   12.9600
  Points triggering refinement:   16( 0.06%)

 AHC (S/cm)       x          y          z
 ==========
 J0 term :      0.0000    -0.0001    -3.1998
 J1 term :     -0.0000     0.0001     9.6849
 J2 term :      0.0028    -0.0106   470.9735
 -------------------------------------------
 Total   :      0.0028    -0.0106   477.4587


 Fermi energy (ev):   12.9700
  Points triggering refinement:   16( 0.06%)

 AHC (S/cm)       x          y          z
 ==========
 J0 term :      0.0000    -0.0001    -3.2002
 J1 term :     -0.0000     0.0001     9.6459
 J2 term :      0.0025    -0.0106   470.6331
 -------------------------------------------
 Total   :      0.0024    -0.0105   477.0787


 Fermi energy (ev):   12.9800
  Points triggering refinement:   16( 0.06%)

 AHC (S/cm)       x          y          z
 ==========
 J0 term :      0.0000    -0.0001    -3.1992
 J1 term :     -0.0000     0.0001     9.6531
 J2 term :      0.0024    -0.0104   477.9030
 -------------------------------------------
 Total   :      0.0024    -0.0103   484.3569


 Fermi energy (ev):   12.9900
  Points triggering refinement:   16( 0.06%)

 AHC (S/cm)       x          y          z
 ==========
 J0 term :      0.0000    -0.0001    -3.2071
 J1 term :     -0.0000     0.0001     9.5000
 J2 term :      0.0023    -0.0104   478.8374
 -------------------------------------------
 Total   :      0.0023    -0.0104   485.1303


 Fermi energy (ev):   13.0000
  Points triggering refinement:   16( 0.06%)

 AHC (S/cm)       x          y          z
 ==========
 J0 term :      0.0000    -0.0001    -3.2045
 J1 term :     -0.0000     0.0001     9.5393
 J2 term :     -0.0006    -0.0040   472.2398
 -------------------------------------------
 Total   :     -0.0006    -0.0040   478.5746


 Total Execution Time         336.950 (sec)

 *===========================================================================*
 |                             TIMING INFORMATION                            |
 *===========================================================================*
 |    Tag                                                Ncalls      Time (s)|
 |---------------------------------------------------------------------------|
 |kmesh: get                                        :         1         1.687|
 *---------------------------------------------------------------------------*


 All done: postw90 exiting
