x Fe.amn
x Fe.eig
x Fe.mmn
wanierizing

evaluating AHC using wannier19 from Fe_tb.dat
../../modules/get_data.py:256: RuntimeWarning: divide by zero encountered in divide
  self._delHH_dE_K=-1j*_delHH_K_/dEig[:,:,:,None]
../../modules/get_data.py:256: RuntimeWarning: invalid value encountered in divide
  self._delHH_dE_K=-1j*_delHH_K_/dEig[:,:,:,None]
reading TB file Fe_tb.dat (  written on  3Jul2019 at 21:19:12 
 )
('Number of wannier functions:', 18)
('Number of R points:', 597)
('Number of K points:', array([13, 13, 13]))
('Real-space lattice:\n', array([[ 1.4349963,  1.4349963,  1.4349963],
       [-1.4349963,  1.4349963,  1.4349963],
       [-1.4349963, -1.4349963,  1.4349963]]))
running get_eog_deleig..
running get_OOmega..
running get_AA_K..
running get_eog_deleig..
running get_OOmega..
running get_AA_K..
running get_eog_deleig..
running get_OOmega..
running get_AA_K..
running get_eog_deleig..
running get_OOmega..
running get_AA_K..
running get_eog_deleig..
running get_OOmega..
running get_AA_K..
running get_eog_deleig..
running get_OOmega..
running get_AA_K..
running get_eog_deleig..
running get_OOmega..
running get_AA_K..
running get_eog_deleig..
running get_OOmega..
running get_AA_K..

Efermi= 12.0 Anomalous Hall conductivity: (in S/cm ) :
J0 term :     0.0000    -0.0002    -1.9831
J1 term :    -0.0001     0.0003     9.4197
J2 term :    -0.0211    -0.0217    -674.4040
--------------------------------------------------
Total   :    -0.0211    -0.0215    -666.9674

Efermi= 12.1 Anomalous Hall conductivity: (in S/cm ) :
J0 term :     0.0000    -0.0002    -2.2144
J1 term :    -0.0001     0.0003     9.4467
J2 term :     0.0164    -0.0468    -82.0406
--------------------------------------------------
Total   :     0.0163    -0.0466    -74.8084

Efermi= 12.2 Anomalous Hall conductivity: (in S/cm ) :
J0 term :     0.0000    -0.0001    -2.3158
J1 term :    -0.0001     0.0003    10.0774
J2 term :    -0.0140    -0.0352    462.4405
--------------------------------------------------
Total   :    -0.0140    -0.0351    470.2021

Efermi= 12.3 Anomalous Hall conductivity: (in S/cm ) :
J0 term :     0.0000    -0.0001    -2.3105
J1 term :    -0.0001     0.0002     9.2950
J2 term :    -0.0003    -0.0104    578.0402
--------------------------------------------------
Total   :    -0.0003    -0.0103    585.0247

Efermi= 12.4 Anomalous Hall conductivity: (in S/cm ) :
J0 term :     0.0000    -0.0001    -2.4760
J1 term :    -0.0000     0.0002    10.0019
J2 term :    -0.0032    -0.0021    483.3646
--------------------------------------------------
Total   :    -0.0032    -0.0020    490.8905

Efermi= 12.5 Anomalous Hall conductivity: (in S/cm ) :
J0 term :     0.0000    -0.0001    -2.7225
J1 term :    -0.0000     0.0002    11.3125
J2 term :    -0.0030    -0.0146    385.7414
--------------------------------------------------
Total   :    -0.0030    -0.0144    394.3314

Efermi= 12.6 Anomalous Hall conductivity: (in S/cm ) :
J0 term :     0.0000    -0.0001    -2.8937
J1 term :    -0.0000     0.0002    10.6981
J2 term :    -0.0088    -0.0046    423.5859
--------------------------------------------------
Total   :    -0.0088    -0.0045    431.3903

Efermi= 12.7 Anomalous Hall conductivity: (in S/cm ) :
J0 term :     0.0000    -0.0001    -3.0465
J1 term :    -0.0001     0.0002    11.3382
J2 term :    -0.0040    -0.0067    1025.9021
--------------------------------------------------
Total   :    -0.0041    -0.0066    1034.1938

Efermi= 12.8 Anomalous Hall conductivity: (in S/cm ) :
J0 term :     0.0000    -0.0001    -3.1401
J1 term :    -0.0000     0.0002    12.1525
J2 term :     0.0111    -0.0301    723.3471
--------------------------------------------------
Total   :     0.0111    -0.0301    732.3595

Efermi= 12.9 Anomalous Hall conductivity: (in S/cm ) :
J0 term :     0.0000    -0.0001    -3.2288
J1 term :    -0.0000     0.0002     9.7911
J2 term :    -0.0163     0.0009    239.4376
--------------------------------------------------
Total   :    -0.0163     0.0010    246.0000

Efermi= 13.0 Anomalous Hall conductivity: (in S/cm ) :
J0 term :     0.0000    -0.0001    -3.2463
J1 term :    -0.0000     0.0002     9.8143
J2 term :    -0.0006    -0.0040    472.2396
--------------------------------------------------
Total   :    -0.0006    -0.0040    478.8076

real	1m5.341s
user	1m10.511s
sys	0m4.705s

evaluating AHC using postw90

real	2m6.943s
user	2m6.550s
sys	0m0.268s

The postw90 results:
 J1 term :     -0.0000     0.0001     9.5114
 J2 term :     -0.0163     0.0009   239.4386
 -------------------------------------------
 Total   :     -0.0164     0.0010   245.7596


 Fermi energy (ev):   13.0000
  Points triggering refinement:   16( 0.06%)

 AHC (S/cm)       x          y          z
 ==========
 J0 term :      0.0000    -0.0001    -3.2045
 J1 term :     -0.0000     0.0001     9.5393
 J2 term :     -0.0006    -0.0040   472.2398
 -------------------------------------------
 Total   :     -0.0006    -0.0040   478.5746


 Total Execution Time         126.813 (sec)

 *===========================================================================*
 |                             TIMING INFORMATION                            |
 *===========================================================================*
 |    Tag                                                Ncalls      Time (s)|
 |---------------------------------------------------------------------------|
 |kmesh: get                                        :         1         1.760|
 *---------------------------------------------------------------------------*


 All done: postw90 exiting

saving AA_R, HH_R

real	0m7.718s
user	0m7.596s
sys	0m0.100s

evaluating AHC using wannier19 from Fe_AA_R.dat, Fe_HH_R.dat, Fe_HH_save.info
../../modules/get_data.py:256: RuntimeWarning: divide by zero encountered in divide
  self._delHH_dE_K=-1j*_delHH_K_/dEig[:,:,:,None]
../../modules/get_data.py:256: RuntimeWarning: invalid value encountered in divide
  self._delHH_dE_K=-1j*_delHH_K_/dEig[:,:,:,None]
('Number of wannier functions:', 18)
('Number of R points:', 597)
('Number of K points:', array([13, 13, 13]))
('Real-space lattice:\n', array([[ 1.4349963,  1.4349963,  1.4349963],
       [-1.4349963,  1.4349963,  1.4349963],
       [-1.4349963, -1.4349963,  1.4349963]]))
reading 0d for  HH
reading 1d for  AA
running get_eog_deleig..
running get_OOmega..
running get_AA_K..
running get_eog_deleig..
running get_OOmega..
running get_AA_K..
running get_eog_deleig..
running get_OOmega..
running get_AA_K..
running get_eog_deleig..
running get_OOmega..
running get_AA_K..
running get_eog_deleig..
running get_OOmega..
running get_AA_K..
running get_eog_deleig..
running get_OOmega..
running get_AA_K..
running get_eog_deleig..
running get_OOmega..
running get_AA_K..
running get_eog_deleig..
running get_OOmega..
running get_AA_K..

Efermi= 12.0 Anomalous Hall conductivity: (in S/cm ) :
J0 term :     0.0000    -0.0002    -1.9457
J1 term :    -0.0001     0.0003     8.8643
J2 term :    -0.0211    -0.0216    -674.4087
--------------------------------------------------
Total   :    -0.0211    -0.0216    -667.4902

Efermi= 12.1 Anomalous Hall conductivity: (in S/cm ) :
J0 term :     0.0000    -0.0001    -2.1805
J1 term :    -0.0001     0.0002     8.9314
J2 term :     0.0163    -0.0467    -82.0387
--------------------------------------------------
Total   :     0.0163    -0.0466    -75.2878

Efermi= 12.2 Anomalous Hall conductivity: (in S/cm ) :
J0 term :     0.0000    -0.0001    -2.2876
J1 term :    -0.0001     0.0002     9.6077
J2 term :    -0.0139    -0.0351    462.4415
--------------------------------------------------
Total   :    -0.0140    -0.0350    469.7615

Efermi= 12.3 Anomalous Hall conductivity: (in S/cm ) :
J0 term :     0.0000    -0.0001    -2.2835
J1 term :    -0.0001     0.0002     8.8266
J2 term :    -0.0003    -0.0104    578.0397
--------------------------------------------------
Total   :    -0.0003    -0.0104    584.5828

Efermi= 12.4 Anomalous Hall conductivity: (in S/cm ) :
J0 term :     0.0000    -0.0001    -2.4534
J1 term :    -0.0001     0.0002     9.5378
J2 term :    -0.0032    -0.0021    483.3638
--------------------------------------------------
Total   :    -0.0032    -0.0020    490.4482

Efermi= 12.5 Anomalous Hall conductivity: (in S/cm ) :
J0 term :     0.0000    -0.0001    -2.6984
J1 term :    -0.0001     0.0002    10.8699
J2 term :    -0.0030    -0.0145    385.7406
--------------------------------------------------
Total   :    -0.0031    -0.0145    393.9121

Efermi= 12.6 Anomalous Hall conductivity: (in S/cm ) :
J0 term :     0.0000    -0.0001    -2.8661
J1 term :    -0.0001     0.0001    10.2980
J2 term :    -0.0087    -0.0046    423.5862
--------------------------------------------------
Total   :    -0.0088    -0.0045    431.0181

Efermi= 12.7 Anomalous Hall conductivity: (in S/cm ) :
J0 term :     0.0000    -0.0001    -3.0166
J1 term :    -0.0001     0.0001    11.0173
J2 term :    -0.0040    -0.0067    1025.9040
--------------------------------------------------
Total   :    -0.0041    -0.0066    1033.9048

Efermi= 12.8 Anomalous Hall conductivity: (in S/cm ) :
J0 term :     0.0000    -0.0001    -3.1051
J1 term :    -0.0000     0.0001    11.8255
J2 term :     0.0109    -0.0296    723.3528
--------------------------------------------------
Total   :     0.0109    -0.0296    732.0733

Efermi= 12.9 Anomalous Hall conductivity: (in S/cm ) :
J0 term :     0.0000    -0.0001    -3.1904
J1 term :    -0.0000     0.0001     9.5114
J2 term :    -0.0163     0.0009    239.4386
--------------------------------------------------
Total   :    -0.0164     0.0010    245.7596

Efermi= 13.0 Anomalous Hall conductivity: (in S/cm ) :
J0 term :     0.0000    -0.0001    -3.2045
J1 term :    -0.0000     0.0001     9.5393
J2 term :    -0.0006    -0.0040    472.2398
--------------------------------------------------
Total   :    -0.0006    -0.0040    478.5746

real	1m4.549s
user	1m9.194s
sys	0m5.005s
