
     Program PWSCF v.7.0 starts on 11May2022 at  1:23:49 

     This program is part of the open-source Quantum ESPRESSO suite
     for quantum simulation of materials; please cite
         "P. Giannozzi et al., J. Phys.:Condens. Matter 21 395502 (2009);
         "P. Giannozzi et al., J. Phys.:Condens. Matter 29 465901 (2017);
         "P. Giannozzi et al., J. Chem. Phys. 152 154105 (2020);
          URL http://www.quantum-espresso.org", 
     in publications or presentations arising from this work. More details at
     http://www.quantum-espresso.org/quote

     Parallel version (MPI & OpenMP), running on      60 processor cores
     Number of MPI processes:                60
     Threads/MPI process:                     1

     MPI processes distributed on     3 nodes
     17139 MiB available memory on the printing compute node when the environment starts
 
     Reading input from bands.in

     Current dimensions of program PWSCF are:
     Max number of different atomic species (ntypx) = 10
     Max number of k-points (npk) =  40000
     Max angular momentum in pseudopotentials (lmaxx) =  4

     Atomic positions and unit cell read from directory:
     ./temp/GeTe.save/
     Atomic positions from file used, from input discarded
 
 
     K-points division:     npool     =      15
     R & G space division:  proc/nbgrp/npool/nimage =       4
     Subspace diagonalization in iterative solution of the eigenvalue problem:
     a serial algorithm will be used

 
     Parallelization info
     --------------------
     sticks:   dense  smooth     PW     G-vecs:    dense   smooth      PW
     Min         323     323     91                 7531     7531    1156
     Max         324     324     92                 7532     7532    1157
     Sum        1295    1295    367                30127    30127    4627
 
     Using Slab Decomposition
 


     bravais-lattice index     =            5
     lattice parameter (alat)  =       8.2860  a.u.
     unit-cell volume          =     381.3054 (a.u.)^3
     number of atoms/cell      =            2
     number of atomic types    =            2
     number of electrons       =        30.00
     number of Kohn-Sham states=           30
     kinetic-energy cutoff     =      70.0000  Ry
     charge density cutoff     =     280.0000  Ry
     Exchange-correlation= PBE
                           (   1   4   3   4   0   0   0)

     celldm(1)=   8.286001  celldm(2)=   0.000000  celldm(3)=   0.000000
     celldm(4)=   0.533894  celldm(5)=   0.000000  celldm(6)=   0.000000

     crystal axes: (cart. coord. in units of alat)
               a(1) = (   0.482756  -0.278719   0.830218 )  
               a(2) = (   0.000000   0.557438   0.830218 )  
               a(3) = (  -0.482756  -0.278719   0.830218 )  

     reciprocal axes: (cart. coord. in units 2 pi/alat)
               b(1) = (  1.035720 -0.597973  0.401501 )  
               b(2) = (  0.000000  1.195947  0.401501 )  
               b(3) = ( -1.035720 -0.597973  0.401501 )  


     PseudoPot. # 1 for Ge read from file:
     ~/PP/all/Ge.dojo.sr.ONCVv0.4.pbe.standard.upf
     MD5 check sum: 087fa14d6c89b52166990835c3b338da
     Pseudo is Norm-conserving + core correction, Zval = 14.0
     Generated using ONCVPSP code by D. R. Hamann
     Using radial grid of 1560 points,  6 beta functions with: 
                l(1) =   0
                l(2) =   0
                l(3) =   1
                l(4) =   1
                l(5) =   2
                l(6) =   2

     PseudoPot. # 2 for Te read from file:
     ~/PP/all/Te.dojo.sr.ONCVv0.4.pbe.standard.upf
     MD5 check sum: 3368f43c0236043475348b0373f3ab9d
     Pseudo is Norm-conserving + core correction, Zval = 16.0
     Generated using ONCVPSP code by D. R. Hamann
     Using radial grid of 1294 points,  6 beta functions with: 
                l(1) =   0
                l(2) =   0
                l(3) =   1
                l(4) =   1
                l(5) =   2
                l(6) =   2

     atomic species   valence    mass     pseudopotential
        Ge            14.00    72.61000     Ge( 1.00)
        Te            16.00   127.60000     Te( 1.00)

      6 Sym. Ops. (no inversion) found


                                    s                        frac. trans.

      isym =  1     identity                                     

 cryst.   s( 1) = (     1          0          0      )
                  (     0          1          0      )
                  (     0          0          1      )

 cart.    s( 1) = (  1.0000000  0.0000000  0.0000000 )
                  (  0.0000000  1.0000000 -0.0000000 )
                  (  0.0000000  0.0000000  1.0000000 )


      isym =  2     120 deg rotation - cryst. axis [0,0,1]       

 cryst.   s( 2) = (     0          1          0      )
                  (     0          0          1      )
                  (     1          0          0      )

 cart.    s( 2) = ( -0.5000000 -0.8660254 -0.0000000 )
                  (  0.8660254 -0.5000000 -0.0000000 )
                  (  0.0000000  0.0000000  1.0000000 )


      isym =  3     120 deg rotation - cryst. axis [0,0,-1]      

 cryst.   s( 3) = (     0          0          1      )
                  (     1          0          0      )
                  (     0          1          0      )

 cart.    s( 3) = ( -0.5000000  0.8660254  0.0000000 )
                  ( -0.8660254 -0.5000000 -0.0000000 )
                  (  0.0000000  0.0000000  1.0000000 )


      isym =  4     inv. 180 deg rotation - cart. axis [1,0,0]   

 cryst.   s( 4) = (     0          0          1      )
                  (     0          1          0      )
                  (     1          0          0      )

 cart.    s( 4) = ( -1.0000000  0.0000000  0.0000000 )
                  (  0.0000000  1.0000000 -0.0000000 )
                  (  0.0000000  0.0000000  1.0000000 )


      isym =  5     inv. 180 deg rotation - cryst. axis [0,1,0]  

 cryst.   s( 5) = (     0          1          0      )
                  (     1          0          0      )
                  (     0          0          1      )

 cart.    s( 5) = (  0.5000000  0.8660254  0.0000000 )
                  (  0.8660254 -0.5000000 -0.0000000 )
                  (  0.0000000  0.0000000  1.0000000 )


      isym =  6     inv. 180 deg rotation - cryst. axis [1,1,0]  

 cryst.   s( 6) = (     1          0          0      )
                  (     0          0          1      )
                  (     0          1          0      )

 cart.    s( 6) = (  0.5000000 -0.8660254 -0.0000000 )
                  ( -0.8660254 -0.5000000 -0.0000000 )
                  (  0.0000000  0.0000000  1.0000000 )


     point group C_3v (3m)  
     there are  3 classes
     the character table:

       E     2C3   3s_v 
A_1    1.00  1.00  1.00
A_2    1.00  1.00 -1.00
E      2.00 -1.00  0.00

     the symmetry operations in each class and the name of the first element:

     E        1
          identity                                               
     2C3      2    3
          120 deg rotation - cryst. axis [0,0,1]                 
     3s_v     4    5    6
          inv. 180 deg rotation - cart. axis [1,0,0]             

   Cartesian axes

     site n.     atom                  positions (alat units)
         1           Ge  tau(   1) = (   0.0000000   0.0000000   0.0000000  )
         2           Te  tau(   2) = (   0.0000000  -0.0000000   1.1676843  )

   Crystallographic axes

     site n.     atom                  positions (cryst. coord.)
         1           Ge  tau(   1) = (  0.0000000  0.0000000  0.0000000  )
         2           Te  tau(   2) = (  0.4688262  0.4688262  0.4688262  )

     number of k points=   160
                       cart. coord. in units 2pi/alat
        k(    1) = (   0.0000000   0.0000000   0.0000000), wk =   0.0125000
        k(    2) = (   0.0172624  -0.0099664   0.0066918), wk =   0.0125000
        k(    3) = (   0.0345237  -0.0199322   0.0133832), wk =   0.0125000
        k(    4) = (   0.0517860  -0.0298987   0.0200750), wk =   0.0125000
        k(    5) = (   0.0690484  -0.0398651   0.0267669), wk =   0.0125000
        k(    6) = (   0.0863097  -0.0498309   0.0334583), wk =   0.0125000
        k(    7) = (   0.1035720  -0.0597973   0.0401501), wk =   0.0125000
        k(    8) = (   0.1208344  -0.0697638   0.0468419), wk =   0.0125000
        k(    9) = (   0.1380957  -0.0797296   0.0535333), wk =   0.0125000
        k(   10) = (   0.1553580  -0.0896960   0.0602251), wk =   0.0125000
        k(   11) = (   0.1726204  -0.0996624   0.0669169), wk =   0.0125000
        k(   12) = (   0.1898817  -0.1096283   0.0736084), wk =   0.0125000
        k(   13) = (   0.2071441  -0.1195947   0.0803002), wk =   0.0125000
        k(   14) = (   0.2244064  -0.1295611   0.0869920), wk =   0.0125000
        k(   15) = (   0.2416677  -0.1395269   0.0936834), wk =   0.0125000
        k(   16) = (   0.2589301  -0.1494933   0.1003752), wk =   0.0125000
        k(   17) = (   0.2761924  -0.1594598   0.1070670), wk =   0.0125000
        k(   18) = (   0.2934537  -0.1694256   0.1137584), wk =   0.0125000
        k(   19) = (   0.3107161  -0.1793920   0.1204502), wk =   0.0125000
        k(   20) = (   0.3279784  -0.1893584   0.1271421), wk =   0.0125000
        k(   21) = (   0.3452398  -0.1993243   0.1338335), wk =   0.0125000
        k(   22) = (   0.3625021  -0.2092907   0.1405253), wk =   0.0125000
        k(   23) = (   0.3797645  -0.2192571   0.1472171), wk =   0.0125000
        k(   24) = (   0.3970258  -0.2292229   0.1539085), wk =   0.0125000
        k(   25) = (   0.4142881  -0.2391894   0.1606003), wk =   0.0125000
        k(   26) = (   0.4315505  -0.2491558   0.1672921), wk =   0.0125000
        k(   27) = (   0.4488118  -0.2591216   0.1739836), wk =   0.0125000
        k(   28) = (   0.4660741  -0.2690880   0.1806754), wk =   0.0125000
        k(   29) = (   0.4833365  -0.2790544   0.1873672), wk =   0.0125000
        k(   30) = (   0.5005978  -0.2890203   0.1940586), wk =   0.0125000
        k(   31) = (   0.5178601  -0.2989867   0.2007504), wk =   0.0125000
        k(   32) = (   0.5142123  -0.2824061   0.2132969), wk =   0.0125000
        k(   33) = (   0.5105656  -0.2658249   0.2258442), wk =   0.0125000
        k(   34) = (   0.5069167  -0.2492449   0.2383911), wk =   0.0125000
        k(   35) = (   0.5032700  -0.2326649   0.2509380), wk =   0.0125000
        k(   36) = (   0.4996221  -0.2160831   0.2634849), wk =   0.0125000
        k(   37) = (   0.4959743  -0.1995025   0.2760314), wk =   0.0125000
        k(   38) = (   0.4923265  -0.1829219   0.2885791), wk =   0.0125000
        k(   39) = (   0.4886787  -0.1663412   0.3011256), wk =   0.0125000
        k(   40) = (   0.4850309  -0.1497606   0.3136721), wk =   0.0125000
        k(   41) = (   0.4813841  -0.1331794   0.3262194), wk =   0.0125000
        k(   42) = (   0.4777353  -0.1165994   0.3387663), wk =   0.0125000
        k(   43) = (   0.4740875  -0.1000188   0.3513128), wk =   0.0125000
        k(   44) = (   0.4704407  -0.0834376   0.3638601), wk =   0.0125000
        k(   45) = (   0.4667929  -0.0668570   0.3764066), wk =   0.0125000
        k(   46) = (   0.4631451  -0.0502764   0.3889543), wk =   0.0125000
        k(   47) = (   0.4594973  -0.0336958   0.4015008), wk =   0.0125000
        k(   48) = (   0.4558495  -0.0171152   0.4140473), wk =   0.0125000
        k(   49) = (   0.4522027  -0.0005340   0.4265946), wk =   0.0125000
        k(   50) = (   0.4485539   0.0160460   0.4391415), wk =   0.0125000
        k(   51) = (   0.4449071   0.0326272   0.4516888), wk =   0.0125000
        k(   52) = (   0.4412593   0.0492078   0.4642353), wk =   0.0125000
        k(   53) = (   0.4376115   0.0657884   0.4767818), wk =   0.0125000
        k(   54) = (   0.4339637   0.0823690   0.4893295), wk =   0.0125000
        k(   55) = (   0.4303159   0.0989496   0.5018760), wk =   0.0125000
        k(   56) = (   0.4266681   0.1155303   0.5144225), wk =   0.0125000
        k(   57) = (   0.4230213   0.1321115   0.5269698), wk =   0.0125000
        k(   58) = (   0.4193725   0.1486915   0.5395167), wk =   0.0125000
        k(   59) = (   0.4157247   0.1652721   0.5520632), wk =   0.0125000
        k(   60) = (   0.4120779   0.1818533   0.5646105), wk =   0.0125000
        k(   61) = (   0.4084301   0.1984339   0.5771570), wk =   0.0125000
        k(   62) = (   0.4047823   0.2150145   0.5897047), wk =   0.0125000
        k(   63) = (   0.4011345   0.2315951   0.6022512), wk =   0.0125000
        k(   64) = (   0.4108620   0.2372113   0.5855223), wk =   0.0125000
        k(   65) = (   0.4205884   0.2428268   0.5687926), wk =   0.0125000
        k(   66) = (   0.4303159   0.2484430   0.5520636), wk =   0.0125000
        k(   67) = (   0.4400434   0.2540592   0.5353347), wk =   0.0125000
        k(   68) = (   0.4497698   0.2596747   0.5186050), wk =   0.0125000
        k(   69) = (   0.4594973   0.2652909   0.5018760), wk =   0.0125000
        k(   70) = (   0.4692248   0.2709071   0.4851471), wk =   0.0125000
        k(   71) = (   0.4789512   0.2765226   0.4684174), wk =   0.0125000
        k(   72) = (   0.4886787   0.2821388   0.4516884), wk =   0.0125000
        k(   73) = (   0.4984062   0.2877550   0.4349595), wk =   0.0125000
        k(   74) = (   0.5081327   0.2933705   0.4182298), wk =   0.0125000
        k(   75) = (   0.5178601   0.2989867   0.4015008), wk =   0.0125000
        k(   76) = (   0.5026288   0.2901929   0.3896919), wk =   0.0125000
        k(   77) = (   0.4873975   0.2813991   0.3778829), wk =   0.0125000
        k(   78) = (   0.4721662   0.2726053   0.3660740), wk =   0.0125000
        k(   79) = (   0.4569349   0.2638115   0.3542651), wk =   0.0125000
        k(   80) = (   0.4417047   0.2550183   0.3424569), wk =   0.0125000
        k(   81) = (   0.4264734   0.2462245   0.3306480), wk =   0.0125000
        k(   82) = (   0.4112421   0.2374307   0.3188390), wk =   0.0125000
        k(   83) = (   0.3960108   0.2286369   0.3070301), wk =   0.0125000
        k(   84) = (   0.3807795   0.2198431   0.2952211), wk =   0.0125000
        k(   85) = (   0.3655482   0.2110493   0.2834122), wk =   0.0125000
        k(   86) = (   0.3503169   0.2022555   0.2716033), wk =   0.0125000
        k(   87) = (   0.3350855   0.1934617   0.2597943), wk =   0.0125000
        k(   88) = (   0.3198553   0.1846685   0.2479862), wk =   0.0125000
        k(   89) = (   0.3046240   0.1758747   0.2361772), wk =   0.0125000
        k(   90) = (   0.2893927   0.1670809   0.2243683), wk =   0.0125000
        k(   91) = (   0.2741614   0.1582871   0.2125594), wk =   0.0125000
        k(   92) = (   0.2589301   0.1494933   0.2007504), wk =   0.0125000
        k(   93) = (   0.2436988   0.1406996   0.1889415), wk =   0.0125000
        k(   94) = (   0.2284675   0.1319058   0.1771325), wk =   0.0125000
        k(   95) = (   0.2132362   0.1231120   0.1653236), wk =   0.0125000
        k(   96) = (   0.1980049   0.1143182   0.1535146), wk =   0.0125000
        k(   97) = (   0.1827746   0.1055250   0.1417065), wk =   0.0125000
        k(   98) = (   0.1675433   0.0967312   0.1298976), wk =   0.0125000
        k(   99) = (   0.1523120   0.0879374   0.1180886), wk =   0.0125000
        k(  100) = (   0.1370807   0.0791436   0.1062797), wk =   0.0125000
        k(  101) = (   0.1218494   0.0703498   0.0944707), wk =   0.0125000
        k(  102) = (   0.1066181   0.0615560   0.0826618), wk =   0.0125000
        k(  103) = (   0.0913868   0.0527622   0.0708529), wk =   0.0125000
        k(  104) = (   0.0761555   0.0439684   0.0590439), wk =   0.0125000
        k(  105) = (   0.0609252   0.0351752   0.0472358), wk =   0.0125000
        k(  106) = (   0.0456939   0.0263814   0.0354268), wk =   0.0125000
        k(  107) = (   0.0304626   0.0175876   0.0236179), wk =   0.0125000
        k(  108) = (   0.0152313   0.0087938   0.0118089), wk =   0.0125000
        k(  109) = (   0.0000000   0.0000000   0.0000000), wk =   0.0125000
        k(  110) = (   0.0000000   0.0000000   0.0207668), wk =   0.0125000
        k(  111) = (   0.0000000   0.0000000   0.0415349), wk =   0.0125000
        k(  112) = (   0.0000000   0.0000000   0.0623017), wk =   0.0125000
        k(  113) = (   0.0000000   0.0000000   0.0830697), wk =   0.0125000
        k(  114) = (   0.0000000   0.0000000   0.1038365), wk =   0.0125000
        k(  115) = (   0.0000000   0.0000000   0.1246034), wk =   0.0125000
        k(  116) = (   0.0000000   0.0000000   0.1453714), wk =   0.0125000
        k(  117) = (   0.0000000   0.0000000   0.1661382), wk =   0.0125000
        k(  118) = (   0.0000000   0.0000000   0.1869051), wk =   0.0125000
        k(  119) = (   0.0000000   0.0000000   0.2076731), wk =   0.0125000
        k(  120) = (   0.0000000   0.0000000   0.2284399), wk =   0.0125000
        k(  121) = (   0.0000000   0.0000000   0.2492080), wk =   0.0125000
        k(  122) = (   0.0000000   0.0000000   0.2699748), wk =   0.0125000
        k(  123) = (   0.0000000   0.0000000   0.2907416), wk =   0.0125000
        k(  124) = (   0.0000000   0.0000000   0.3115096), wk =   0.0125000
        k(  125) = (   0.0000000   0.0000000   0.3322765), wk =   0.0125000
        k(  126) = (   0.0000000   0.0000000   0.3530433), wk =   0.0125000
        k(  127) = (   0.0000000   0.0000000   0.3738113), wk =   0.0125000
        k(  128) = (   0.0000000   0.0000000   0.3945782), wk =   0.0125000
        k(  129) = (   0.0000000   0.0000000   0.4153462), wk =   0.0125000
        k(  130) = (   0.0000000   0.0000000   0.4361130), wk =   0.0125000
        k(  131) = (   0.0000000   0.0000000   0.4568798), wk =   0.0125000
        k(  132) = (   0.0000000   0.0000000   0.4776479), wk =   0.0125000
        k(  133) = (   0.0000000   0.0000000   0.4984147), wk =   0.0125000
        k(  134) = (   0.0000000   0.0000000   0.5191815), wk =   0.0125000
        k(  135) = (   0.0000000   0.0000000   0.5399496), wk =   0.0125000
        k(  136) = (   0.0000000   0.0000000   0.5607164), wk =   0.0125000
        k(  137) = (   0.0000000   0.0000000   0.5814844), wk =   0.0125000
        k(  138) = (   0.0000000   0.0000000   0.6022512), wk =   0.0125000
        k(  139) = (   0.0182328   0.0105267   0.6022512), wk =   0.0125000
        k(  140) = (   0.0364667   0.0210540   0.6022508), wk =   0.0125000
        k(  141) = (   0.0547005   0.0315814   0.6022516), wk =   0.0125000
        k(  142) = (   0.0729334   0.0421081   0.6022516), wk =   0.0125000
        k(  143) = (   0.0911672   0.0526354   0.6022512), wk =   0.0125000
        k(  144) = (   0.1094000   0.0631621   0.6022512), wk =   0.0125000
        k(  145) = (   0.1276339   0.0736895   0.6022508), wk =   0.0125000
        k(  146) = (   0.1458667   0.0842162   0.6022508), wk =   0.0125000
        k(  147) = (   0.1641006   0.0947435   0.6022516), wk =   0.0125000
        k(  148) = (   0.1823344   0.1052708   0.6022512), wk =   0.0125000
        k(  149) = (   0.2005672   0.1157975   0.6022512), wk =   0.0125000
        k(  150) = (   0.2188001   0.1263243   0.6022512), wk =   0.0125000
        k(  151) = (   0.2370339   0.1368516   0.6022508), wk =   0.0125000
        k(  152) = (   0.2552678   0.1473789   0.6022516), wk =   0.0125000
        k(  153) = (   0.2735006   0.1579056   0.6022516), wk =   0.0125000
        k(  154) = (   0.2917344   0.1684330   0.6022512), wk =   0.0125000
        k(  155) = (   0.3099673   0.1789597   0.6022512), wk =   0.0125000
        k(  156) = (   0.3282011   0.1894870   0.6022508), wk =   0.0125000
        k(  157) = (   0.3464339   0.2000137   0.6022508), wk =   0.0125000
        k(  158) = (   0.3646678   0.2105410   0.6022516), wk =   0.0125000
        k(  159) = (   0.3829016   0.2210684   0.6022512), wk =   0.0125000
        k(  160) = (   0.4011345   0.2315951   0.6022512), wk =   0.0125000

                       cryst. coord.
        k(    1) = (   0.0000000   0.0000000   0.0000000), wk =   0.0125000
        k(    2) = (   0.0166670  -0.0000000   0.0000000), wk =   0.0125000
        k(    3) = (   0.0333330   0.0000000   0.0000000), wk =   0.0125000
        k(    4) = (   0.0500000   0.0000000   0.0000000), wk =   0.0125000
        k(    5) = (   0.0666670  -0.0000000   0.0000000), wk =   0.0125000
        k(    6) = (   0.0833330   0.0000000   0.0000000), wk =   0.0125000
        k(    7) = (   0.1000000   0.0000000   0.0000000), wk =   0.0125000
        k(    8) = (   0.1166670   0.0000000   0.0000000), wk =   0.0125000
        k(    9) = (   0.1333330  -0.0000000   0.0000000), wk =   0.0125000
        k(   10) = (   0.1500000   0.0000000   0.0000000), wk =   0.0125000
        k(   11) = (   0.1666670   0.0000000   0.0000000), wk =   0.0125000
        k(   12) = (   0.1833330  -0.0000000   0.0000000), wk =   0.0125000
        k(   13) = (   0.2000000   0.0000000   0.0000000), wk =   0.0125000
        k(   14) = (   0.2166670   0.0000000   0.0000000), wk =   0.0125000
        k(   15) = (   0.2333330   0.0000000   0.0000000), wk =   0.0125000
        k(   16) = (   0.2500000   0.0000000   0.0000000), wk =   0.0125000
        k(   17) = (   0.2666670   0.0000000   0.0000000), wk =   0.0125000
        k(   18) = (   0.2833330   0.0000000  -0.0000000), wk =   0.0125000
        k(   19) = (   0.3000000   0.0000000   0.0000000), wk =   0.0125000
        k(   20) = (   0.3166670   0.0000000   0.0000000), wk =   0.0125000
        k(   21) = (   0.3333330   0.0000000  -0.0000000), wk =   0.0125000
        k(   22) = (   0.3500000  -0.0000000   0.0000000), wk =   0.0125000
        k(   23) = (   0.3666670  -0.0000000   0.0000000), wk =   0.0125000
        k(   24) = (   0.3833330   0.0000000   0.0000000), wk =   0.0125000
        k(   25) = (   0.4000000   0.0000000   0.0000000), wk =   0.0125000
        k(   26) = (   0.4166670  -0.0000000   0.0000000), wk =   0.0125000
        k(   27) = (   0.4333330   0.0000000   0.0000000), wk =   0.0125000
        k(   28) = (   0.4500000   0.0000000   0.0000000), wk =   0.0125000
        k(   29) = (   0.4666670   0.0000000   0.0000000), wk =   0.0125000
        k(   30) = (   0.4833330   0.0000000  -0.0000000), wk =   0.0125000
        k(   31) = (   0.5000000   0.0000000   0.0000000), wk =   0.0125000
        k(   32) = (   0.5040340   0.0196590   0.0075560), wk =   0.0125000
        k(   33) = (   0.5080690   0.0393190   0.0151120), wk =   0.0125000
        k(   34) = (   0.5121030   0.0589780   0.0226690), wk =   0.0125000
        k(   35) = (   0.5161380   0.0786370   0.0302250), wk =   0.0125000
        k(   36) = (   0.5201720   0.0982970   0.0377810), wk =   0.0125000
        k(   37) = (   0.5242060   0.1179560   0.0453370), wk =   0.0125000
        k(   38) = (   0.5282410   0.1376160   0.0528940), wk =   0.0125000
        k(   39) = (   0.5322750   0.1572750   0.0604500), wk =   0.0125000
        k(   40) = (   0.5363090   0.1769340   0.0680060), wk =   0.0125000
        k(   41) = (   0.5403440   0.1965940   0.0755620), wk =   0.0125000
        k(   42) = (   0.5443780   0.2162530   0.0831190), wk =   0.0125000
        k(   43) = (   0.5484120   0.2359120   0.0906750), wk =   0.0125000
        k(   44) = (   0.5524470   0.2555720   0.0982310), wk =   0.0125000
        k(   45) = (   0.5564810   0.2752310   0.1057870), wk =   0.0125000
        k(   46) = (   0.5605160   0.2948910   0.1133440), wk =   0.0125000
        k(   47) = (   0.5645500   0.3145500   0.1209000), wk =   0.0125000
        k(   48) = (   0.5685840   0.3342090   0.1284560), wk =   0.0125000
        k(   49) = (   0.5726190   0.3538690   0.1360120), wk =   0.0125000
        k(   50) = (   0.5766530   0.3735280   0.1435690), wk =   0.0125000
        k(   51) = (   0.5806880   0.3931880   0.1511250), wk =   0.0125000
        k(   52) = (   0.5847220   0.4128470   0.1586810), wk =   0.0125000
        k(   53) = (   0.5887560   0.4325060   0.1662370), wk =   0.0125000
        k(   54) = (   0.5927910   0.4521660   0.1737940), wk =   0.0125000
        k(   55) = (   0.5968250   0.4718250   0.1813500), wk =   0.0125000
        k(   56) = (   0.6008590   0.4914840   0.1889060), wk =   0.0125000
        k(   57) = (   0.6048940   0.5111440   0.1964620), wk =   0.0125000
        k(   58) = (   0.6089280   0.5308030   0.2040190), wk =   0.0125000
        k(   59) = (   0.6129620   0.5504620   0.2115750), wk =   0.0125000
        k(   60) = (   0.6169970   0.5701220   0.2191310), wk =   0.0125000
        k(   61) = (   0.6210310   0.5897810   0.2266870), wk =   0.0125000
        k(   62) = (   0.6250660   0.6094410   0.2342440), wk =   0.0125000
        k(   63) = (   0.6291000   0.6291000   0.2418000), wk =   0.0125000
        k(   64) = (   0.6183420   0.6183420   0.2216500), wk =   0.0125000
        k(   65) = (   0.6075830   0.6075830   0.2015000), wk =   0.0125000
        k(   66) = (   0.5968250   0.5968250   0.1813500), wk =   0.0125000
        k(   67) = (   0.5860670   0.5860670   0.1612000), wk =   0.0125000
        k(   68) = (   0.5753080   0.5753080   0.1410500), wk =   0.0125000
        k(   69) = (   0.5645500   0.5645500   0.1209000), wk =   0.0125000
        k(   70) = (   0.5537920   0.5537920   0.1007500), wk =   0.0125000
        k(   71) = (   0.5430330   0.5430330   0.0806000), wk =   0.0125000
        k(   72) = (   0.5322750   0.5322750   0.0604500), wk =   0.0125000
        k(   73) = (   0.5215170   0.5215170   0.0403000), wk =   0.0125000
        k(   74) = (   0.5107580   0.5107580   0.0201500), wk =   0.0125000
        k(   75) = (   0.5000000   0.5000000   0.0000000), wk =   0.0125000
        k(   76) = (   0.4852940   0.4852940   0.0000000), wk =   0.0125000
        k(   77) = (   0.4705880   0.4705880  -0.0000000), wk =   0.0125000
        k(   78) = (   0.4558820   0.4558820   0.0000000), wk =   0.0125000
        k(   79) = (   0.4411760   0.4411760   0.0000000), wk =   0.0125000
        k(   80) = (   0.4264710   0.4264710  -0.0000000), wk =   0.0125000
        k(   81) = (   0.4117650   0.4117650   0.0000000), wk =   0.0125000
        k(   82) = (   0.3970590   0.3970590   0.0000000), wk =   0.0125000
        k(   83) = (   0.3823530   0.3823530   0.0000000), wk =   0.0125000
        k(   84) = (   0.3676470   0.3676470  -0.0000000), wk =   0.0125000
        k(   85) = (   0.3529410   0.3529410   0.0000000), wk =   0.0125000
        k(   86) = (   0.3382350   0.3382350  -0.0000000), wk =   0.0125000
        k(   87) = (   0.3235290   0.3235290   0.0000000), wk =   0.0125000
        k(   88) = (   0.3088240   0.3088240  -0.0000000), wk =   0.0125000
        k(   89) = (   0.2941180   0.2941180   0.0000000), wk =   0.0125000
        k(   90) = (   0.2794120   0.2794120   0.0000000), wk =   0.0125000
        k(   91) = (   0.2647060   0.2647060   0.0000000), wk =   0.0125000
        k(   92) = (   0.2500000   0.2500000   0.0000000), wk =   0.0125000
        k(   93) = (   0.2352940   0.2352940  -0.0000000), wk =   0.0125000
        k(   94) = (   0.2205880   0.2205880   0.0000000), wk =   0.0125000
        k(   95) = (   0.2058820   0.2058820   0.0000000), wk =   0.0125000
        k(   96) = (   0.1911760   0.1911760   0.0000000), wk =   0.0125000
        k(   97) = (   0.1764710   0.1764710   0.0000000), wk =   0.0125000
        k(   98) = (   0.1617650   0.1617650   0.0000000), wk =   0.0125000
        k(   99) = (   0.1470590   0.1470590   0.0000000), wk =   0.0125000
        k(  100) = (   0.1323530   0.1323530   0.0000000), wk =   0.0125000
        k(  101) = (   0.1176470   0.1176470  -0.0000000), wk =   0.0125000
        k(  102) = (   0.1029410   0.1029410   0.0000000), wk =   0.0125000
        k(  103) = (   0.0882350   0.0882350   0.0000000), wk =   0.0125000
        k(  104) = (   0.0735290   0.0735290   0.0000000), wk =   0.0125000
        k(  105) = (   0.0588240   0.0588240   0.0000000), wk =   0.0125000
        k(  106) = (   0.0441180   0.0441180   0.0000000), wk =   0.0125000
        k(  107) = (   0.0294120   0.0294120   0.0000000), wk =   0.0125000
        k(  108) = (   0.0147060   0.0147060   0.0000000), wk =   0.0125000
        k(  109) = (   0.0000000   0.0000000   0.0000000), wk =   0.0125000
        k(  110) = (   0.0172410   0.0172410   0.0172410), wk =   0.0125000
        k(  111) = (   0.0344830   0.0344830   0.0344830), wk =   0.0125000
        k(  112) = (   0.0517240   0.0517240   0.0517240), wk =   0.0125000
        k(  113) = (   0.0689660   0.0689660   0.0689660), wk =   0.0125000
        k(  114) = (   0.0862070   0.0862070   0.0862070), wk =   0.0125000
        k(  115) = (   0.1034480   0.1034480   0.1034480), wk =   0.0125000
        k(  116) = (   0.1206900   0.1206900   0.1206900), wk =   0.0125000
        k(  117) = (   0.1379310   0.1379310   0.1379310), wk =   0.0125000
        k(  118) = (   0.1551720   0.1551720   0.1551720), wk =   0.0125000
        k(  119) = (   0.1724140   0.1724140   0.1724140), wk =   0.0125000
        k(  120) = (   0.1896550   0.1896550   0.1896550), wk =   0.0125000
        k(  121) = (   0.2068970   0.2068970   0.2068970), wk =   0.0125000
        k(  122) = (   0.2241380   0.2241380   0.2241380), wk =   0.0125000
        k(  123) = (   0.2413790   0.2413790   0.2413790), wk =   0.0125000
        k(  124) = (   0.2586210   0.2586210   0.2586210), wk =   0.0125000
        k(  125) = (   0.2758620   0.2758620   0.2758620), wk =   0.0125000
        k(  126) = (   0.2931030   0.2931030   0.2931030), wk =   0.0125000
        k(  127) = (   0.3103450   0.3103450   0.3103450), wk =   0.0125000
        k(  128) = (   0.3275860   0.3275860   0.3275860), wk =   0.0125000
        k(  129) = (   0.3448280   0.3448280   0.3448280), wk =   0.0125000
        k(  130) = (   0.3620690   0.3620690   0.3620690), wk =   0.0125000
        k(  131) = (   0.3793100   0.3793100   0.3793100), wk =   0.0125000
        k(  132) = (   0.3965520   0.3965520   0.3965520), wk =   0.0125000
        k(  133) = (   0.4137930   0.4137930   0.4137930), wk =   0.0125000
        k(  134) = (   0.4310340   0.4310340   0.4310340), wk =   0.0125000
        k(  135) = (   0.4482760   0.4482760   0.4482760), wk =   0.0125000
        k(  136) = (   0.4655170   0.4655170   0.4655170), wk =   0.0125000
        k(  137) = (   0.4827590   0.4827590   0.4827590), wk =   0.0125000
        k(  138) = (   0.5000000   0.5000000   0.5000000), wk =   0.0125000
        k(  139) = (   0.5058680   0.5058680   0.4882640), wk =   0.0125000
        k(  140) = (   0.5117360   0.5117360   0.4765270), wk =   0.0125000
        k(  141) = (   0.5176050   0.5176050   0.4647910), wk =   0.0125000
        k(  142) = (   0.5234730   0.5234730   0.4530550), wk =   0.0125000
        k(  143) = (   0.5293410   0.5293410   0.4413180), wk =   0.0125000
        k(  144) = (   0.5352090   0.5352090   0.4295820), wk =   0.0125000
        k(  145) = (   0.5410770   0.5410770   0.4178450), wk =   0.0125000
        k(  146) = (   0.5469450   0.5469450   0.4061090), wk =   0.0125000
        k(  147) = (   0.5528140   0.5528140   0.3943730), wk =   0.0125000
        k(  148) = (   0.5586820   0.5586820   0.3826360), wk =   0.0125000
        k(  149) = (   0.5645500   0.5645500   0.3709000), wk =   0.0125000
        k(  150) = (   0.5704180   0.5704180   0.3591640), wk =   0.0125000
        k(  151) = (   0.5762860   0.5762860   0.3474270), wk =   0.0125000
        k(  152) = (   0.5821550   0.5821550   0.3356910), wk =   0.0125000
        k(  153) = (   0.5880230   0.5880230   0.3239550), wk =   0.0125000
        k(  154) = (   0.5938910   0.5938910   0.3122180), wk =   0.0125000
        k(  155) = (   0.5997590   0.5997590   0.3004820), wk =   0.0125000
        k(  156) = (   0.6056270   0.6056270   0.2887450), wk =   0.0125000
        k(  157) = (   0.6114950   0.6114950   0.2770090), wk =   0.0125000
        k(  158) = (   0.6173640   0.6173640   0.2652730), wk =   0.0125000
        k(  159) = (   0.6232320   0.6232320   0.2535360), wk =   0.0125000
        k(  160) = (   0.6291000   0.6291000   0.2418000), wk =   0.0125000

     Dense  grid:    30127 G-vectors     FFT dimensions: (  45,  45,  45)

     Dynamical RAM for                 wfc:       0.43 MB

     Dynamical RAM for     wfc (w. buffer):       5.17 MB

     Dynamical RAM for           str. fact:       0.23 MB

     Dynamical RAM for           local pot:       0.00 MB

     Dynamical RAM for          nlocal pot:       0.52 MB

     Dynamical RAM for                qrad:       2.69 MB

     Dynamical RAM for          rho,v,vnew:       0.90 MB

     Dynamical RAM for           G-vectors:       0.49 MB

     Dynamical RAM for          h,s,v(r/c):       0.16 MB

     Dynamical RAM for          <psi|beta>:       0.02 MB

     Dynamical RAM for                 psi:       0.86 MB

     Dynamical RAM for                hpsi:       0.86 MB

     Dynamical RAM for      wfcinit/wfcrot:       0.88 MB

     Estimated static dynamical RAM per process >      11.27 MB

     Estimated max dynamical RAM per process >      13.18 MB

     Estimated total dynamical RAM >     790.56 MB

     The potential is recalculated from file :
     ./temp/GeTe.save/charge-density

     Starting wfcs are   18 randomized atomic wfcs +   12 random wfcs

     Band Structure Calculation
     Davidson diagonalization with overlap

     Computing kpt #:     1  of    11 on this pool
     total cpu time spent up to now is        1.5 secs

     Computing kpt #:     2  of    11 on this pool
     total cpu time spent up to now is        2.1 secs

     Computing kpt #:     3  of    11 on this pool
     total cpu time spent up to now is        2.6 secs

     Computing kpt #:     4  of    11 on this pool
     total cpu time spent up to now is        3.2 secs

     Computing kpt #:     5  of    11 on this pool
     total cpu time spent up to now is        3.8 secs

     Computing kpt #:     6  of    11 on this pool
     total cpu time spent up to now is        4.4 secs

     Computing kpt #:     7  of    11 on this pool
     total cpu time spent up to now is        5.0 secs

     Computing kpt #:     8  of    11 on this pool
     total cpu time spent up to now is        5.7 secs

     Computing kpt #:     9  of    11 on this pool
     total cpu time spent up to now is        6.3 secs

     Computing kpt #:    10  of    11 on this pool
     total cpu time spent up to now is        6.9 secs

     Computing kpt #:    11  of    11 on this pool
     total cpu time spent up to now is        7.4 secs

     ethr =  3.33E-13,  avg # of iterations = 48.8

     total cpu time spent up to now is        7.4 secs

     End of band structure calculation

          k = 0.0000 0.0000 0.0000 (  3793 PWs)   bands (ev):

   -27.6781 -27.6781 -27.6654 -27.6654 -27.6612 -15.6199 -15.6199 -15.6114
   -15.6114 -15.6091  -3.6672   4.1944   7.4759   7.5951   7.5951  11.9377
    12.4768  12.4768  15.1110  15.1110  15.2639  16.9918  16.9918  17.3042
    17.4125  30.1782  30.2592  30.2592  30.8557  30.8557

          k = 0.0173-0.0100 0.0067 (  3783 PWs)   bands (ev):

   -27.6781 -27.6781 -27.6654 -27.6654 -27.6612 -15.6197 -15.6197 -15.6114
   -15.6114 -15.6091  -3.6645   4.1822   7.4723   7.5944   7.6047  11.9338
    12.4684  12.4687  15.0977  15.1105  15.2514  17.0139  17.0214  17.3298
    17.4334  29.9707  30.2574  30.2652  30.8291  30.8952

          k = 0.0345-0.0199 0.0134 (  3780 PWs)   bands (ev):

   -27.6781 -27.6780 -27.6654 -27.6654 -27.6612 -15.6197 -15.6197 -15.6114
   -15.6114 -15.6091  -3.6562   4.1459   7.4638   7.5922   7.6307  11.9217
    12.4437  12.4445  15.0568  15.1099  15.2217  17.0790  17.1039  17.4048
    17.4971  29.5891  30.2469  30.2698  30.7311  30.7410

          k = 0.0518-0.0299 0.0201 (  3775 PWs)   bands (ev):

   -27.6781 -27.6780 -27.6654 -27.6654 -27.6612 -15.6197 -15.6196 -15.6114
   -15.6113 -15.6091  -3.6425   4.0868   7.4542   7.5886   7.6684  11.9004
    12.4041  12.4047  14.9911  15.1123  15.1884  17.1835  17.2256  17.5210
    17.6087  29.1685  30.2001  30.2585  30.4879  30.5949

          k = 0.0690-0.0399 0.0268 (  3772 PWs)   bands (ev):

   -27.6780 -27.6780 -27.6654 -27.6654 -27.6611 -15.6197 -15.6195 -15.6114
   -15.6114 -15.6091  -3.6233   4.0065   7.4451   7.5838   7.7149  11.8683
    12.3501  12.3513  14.9112  15.1215  15.1593  17.3226  17.3747  17.6631
    17.7760  28.7359  30.0316  30.0808  30.3607  30.4791

          k = 0.0863-0.0498 0.0335 (  3777 PWs)   bands (ev):

   -27.6781 -27.6779 -27.6654 -27.6654 -27.6611 -15.6197 -15.6195 -15.6114
   -15.6114 -15.6091  -3.5987   3.9072   7.4370   7.5777   7.7678  11.8239
    12.2817  12.2873  14.8301  15.1377  15.1412  17.4915  17.5454  17.8244
    17.9936  28.2996  29.7162  29.7397  30.3677  30.4510

          k = 0.1036-0.0598 0.0402 (  3778 PWs)   bands (ev):

   -27.6781 -27.6779 -27.6655 -27.6654 -27.6611 -15.6198 -15.6194 -15.6115
   -15.6115 -15.6091  -3.5687   3.7911   7.4300   7.5706   7.8255  11.7660
    12.2010  12.2138  14.7585  15.1259  15.1741  17.6857  17.7360  18.0056
    18.2485  27.8635  29.3309  29.3624  30.3956  30.4636

          k = 0.1208-0.0698 0.0468 (  3774 PWs)   bands (ev):

   -27.6781 -27.6778 -27.6655 -27.6654 -27.6611 -15.6198 -15.6192 -15.6115
   -15.6115 -15.6090  -3.5334   3.6606   7.4240   7.5627   7.8864  11.6943
    12.1099  12.1318  14.7033  15.1262  15.2221  17.9017  17.9454  18.2055
    18.5313  27.4300  28.9167  28.9696  30.4323  30.4934

          k = 0.1381-0.0797 0.0535 (  3776 PWs)   bands (ev):

   -27.6780 -27.6777 -27.6655 -27.6654 -27.6610 -15.6199 -15.6192 -15.6116
   -15.6115 -15.6089  -3.4929   3.5178   7.4190   7.5541   7.9491  11.6097
    12.0102  12.0416  14.6689  15.1407  15.2858  18.1360  18.1727  18.4217
    18.8361  27.0006  28.4897  28.5695  30.4754  30.5335

          k = 0.1554-0.0897 0.0602 (  3774 PWs)   bands (ev):

   -27.6780 -27.6777 -27.6655 -27.6654 -27.6610 -15.6199 -15.6192 -15.6116
   -15.6115 -15.6089  -3.4472   3.3648   7.4151   7.5449   8.0124  11.5141
    11.9038  11.9434  14.6575  15.1711  15.3657  18.3865  18.4162  18.6516
    19.1594  26.5765  28.0573  28.1672  30.5242  30.5816

          k = 0.1726-0.0997 0.0669 (  3770 PWs)   bands (ev):

   -27.6780 -27.6776 -27.6655 -27.6654 -27.6609 -15.6200 -15.6191 -15.6116
   -15.6115 -15.6087  -3.3965   3.2035   7.4123   7.5356   8.0754  11.4096
    11.7928  11.8375  14.6697  15.2187  15.4614  18.6513  18.6738  18.8927
    19.4987  26.1589  27.6239  27.7667  30.5777  30.6364

          k = 0.1899-0.1096 0.0736 (  3771 PWs)   bands (ev):

   -27.6780 -27.6775 -27.6655 -27.6654 -27.6609 -15.6200 -15.6189 -15.6117
   -15.6116 -15.6087  -3.3409   3.0355   7.4106   7.5261   8.1374  11.2986
    11.6787  11.7247  14.7048  15.2840  15.5725  18.9285  18.9423  19.1435
    19.8522  25.7488  27.1917  27.3715  30.6354  30.6972

          k = 0.2071-0.1196 0.0803 (  3767 PWs)   bands (ev):

   -27.6780 -27.6774 -27.6655 -27.6654 -27.6608 -15.6201 -15.6188 -15.6117
   -15.6116 -15.6085  -3.2805   2.8626   7.4101   7.5167   8.1978  11.1832
    11.5633  11.6060  14.7617  15.3677  15.6983  19.2172  19.2172  19.4036
    20.2189  25.3474  26.7624  26.9853  30.6961  30.7634

          k = 0.2244-0.1296 0.0870 (  3765 PWs)   bands (ev):

   -27.6780 -27.6773 -27.6655 -27.6654 -27.6607 -15.6202 -15.6187 -15.6118
   -15.6117 -15.6084  -3.2155   2.6859   7.4110   7.5076   8.2565  11.0654
    11.4480  11.4829  14.8386  15.4695  15.8382  19.4902  19.5160  19.6753
    20.5977  24.9559  26.3371  26.6119  30.7584  30.8341

          k = 0.2417-0.1395 0.0937 (  3758 PWs)   bands (ev):

   -27.6780 -27.6772 -27.6655 -27.6654 -27.6606 -15.6202 -15.6185 -15.6118
   -15.6117 -15.6082  -3.1461   2.5069   7.4133   7.4989   8.3133  10.9468
    11.3339  11.3569  14.9339  15.5893  15.9915  19.7499  19.8240  19.9634
    20.9878  24.5758  25.9167  26.2563  30.8196  30.9075

          k = 0.2589-0.1495 0.1004 (  3756 PWs)   bands (ev):

   -27.6780 -27.6771 -27.6656 -27.6654 -27.6606 -15.6202 -15.6184 -15.6119
   -15.6118 -15.6082  -3.0727   2.3267   7.4170   7.4907   8.3682  10.8288
    11.2222  11.2296  15.0461  15.7264  16.1576  19.9859  20.1404  20.2697
    21.3882  24.2090  25.5019  25.9246  30.8755  30.9799

          k = 0.2762-0.1595 0.1071 (  3758 PWs)   bands (ev):

   -27.6780 -27.6770 -27.6656 -27.6654 -27.6605 -15.6203 -15.6183 -15.6120
   -15.6119 -15.6081  -2.9955   2.1466   7.4221   7.4832   8.4213  10.7125
    11.1024  11.1139  15.1737  15.8802  16.3358  20.1902  20.4641  20.5912
    21.7978  23.8576  25.0936  25.6256  30.9176  31.0381

          k = 0.2935-0.1694 0.1138 (  3762 PWs)   bands (ev):

   -27.6780 -27.6769 -27.6656 -27.6654 -27.6605 -15.6204 -15.6182 -15.6121
   -15.6120 -15.6079  -2.9150   1.9675   7.4287   7.4764   8.4729  10.5989
    10.9764  11.0097  15.3157  16.0497  16.5256  20.3540  20.7941  20.9234
    22.2136  23.5259  24.6928  25.3705  30.9282  31.0211

          k = 0.3107-0.1794 0.1205 (  3762 PWs)   bands (ev):

   -27.6780 -27.6768 -27.6656 -27.6654 -27.6604 -15.6205 -15.6181 -15.6121
   -15.6120 -15.6078  -2.8315   1.7907   7.4365   7.4703   8.5230  10.4891
    10.8529  10.9104  15.4712  16.2341  16.7264  20.4658  21.1288  21.2608
    22.6225  23.2289  24.3008  25.1732  30.7946  30.8709

          k = 0.3280-0.1894 0.1271 (  3760 PWs)   bands (ev):

   -27.6780 -27.6767 -27.6656 -27.6654 -27.6603 -15.6205 -15.6180 -15.6122
   -15.6121 -15.6077  -2.7458   1.6172   7.4455   7.4651   8.5720  10.3838
    10.7329  10.8166  15.6392  16.4325  16.9379  20.5141  21.4649  21.5934
    22.8159  23.1809  23.9208  25.0488  30.4327  30.6968

          k = 0.3452-0.1993 0.1338 (  3765 PWs)   bands (ev):

   -27.6780 -27.6766 -27.6656 -27.6654 -27.6603 -15.6206 -15.6179 -15.6122
   -15.6122 -15.6078  -2.6584   1.4483   7.4555   7.4606   8.6200  10.2837
    10.6171  10.7290  15.8191  16.6438  17.1594  20.4923  21.7953  21.8833
    22.6346  23.5599  23.5722  25.0089  30.0310  30.4034

          k = 0.3625-0.2093 0.1405 (  3754 PWs)   bands (ev):

   -27.6779 -27.6765 -27.6656 -27.6653 -27.6602 -15.6206 -15.6177 -15.6122
   -15.6121 -15.6076  -2.5704   1.2854   7.4569   7.4662   8.6671  10.1897
    10.5067  10.6481  16.0100  16.8673  17.3907  20.4019  21.9674  22.0964
    22.6244  23.2417  24.0127  25.0591  29.6147  30.0391

          k = 0.3798-0.2193 0.1472 (  3754 PWs)   bands (ev):

   -27.6779 -27.6764 -27.6657 -27.6654 -27.6602 -15.6207 -15.6176 -15.6123
   -15.6122 -15.6075  -2.4829   1.1298   7.4540   7.4774   8.7132  10.1023
    10.4024  10.5744  16.2114  17.1022  17.6312  20.2525  21.7763  22.2717
    22.8885  23.0624  24.4584  25.1973  29.1917  29.6421

          k = 0.3970-0.2292 0.1539 (  3754 PWs)   bands (ev):

   -27.6779 -27.6764 -27.6657 -27.6653 -27.6601 -15.6207 -15.6175 -15.6123
   -15.6123 -15.6074  -2.3972   0.9834   7.4516   7.4887   8.7582  10.0222
    10.3052  10.5082  16.4223  17.3474  17.8805  20.0581  21.4996  22.1593
    23.1840  23.2392  24.8945  25.4208  28.7659  29.2319

          k = 0.4143-0.2392 0.1606 (  3757 PWs)   bands (ev):

   -27.6779 -27.6763 -27.6657 -27.6653 -27.6601 -15.6208 -15.6175 -15.6124
   -15.6123 -15.6074  -2.3150   0.8482   7.4499   7.4997   8.8017   9.9501
    10.2164  10.4500  16.6418  17.6023  18.1379  19.8328  21.1990  21.8799
    23.4859  23.6147  25.3003  25.7327  28.3391  28.8190

          k = 0.4316-0.2492 0.1673 (  3760 PWs)   bands (ev):

   -27.6779 -27.6762 -27.6657 -27.6653 -27.6600 -15.6208 -15.6174 -15.6125
   -15.6123 -15.6074  -2.2385   0.7263   7.4486   7.5101   8.8429   9.8864
    10.1371  10.4002  16.8689  17.8658  18.4027  19.5884  20.8890  21.5609
    23.8413  24.0012  25.6625  26.1270  27.9128  28.4125

          k = 0.4488-0.2591 0.1740 (  3762 PWs)   bands (ev):

   -27.6779 -27.6762 -27.6657 -27.6654 -27.6600 -15.6209 -15.6174 -15.6125
   -15.6124 -15.6073  -2.1702   0.6206   7.4477   7.5193   8.8807   9.8320
    10.0689  10.3589  17.1016  18.1361  18.6737  19.3356  20.5751  21.2355
    24.2174  24.3937  25.9884  26.5715  27.4880  28.0263

          k = 0.4661-0.2691 0.1807 (  3761 PWs)   bands (ev):

   -27.6779 -27.6762 -27.6657 -27.6653 -27.6600 -15.6210 -15.6173 -15.6124
   -15.6124 -15.6073  -2.1127   0.5339   7.4471   7.5269   8.9135   9.7876
    10.0135  10.3266  17.3368  18.4084  18.9486  19.0867  20.2607  20.9151
    24.6052  24.7888  26.2640  27.0293  27.0656  27.6968

          k = 0.4833-0.2791 0.1874 (  3755 PWs)   bands (ev):

   -27.6779 -27.6761 -27.6657 -27.6653 -27.6600 -15.6209 -15.6173 -15.6124
   -15.6124 -15.6072  -2.0689   0.4692   7.4468   7.5327   8.9393   9.7544
     9.9725  10.3034  17.5672  18.6392  18.8952  19.2212  19.9484  20.6087
    25.0006  25.1817  26.3995  26.6465  27.4028  27.5811

          k = 0.5006-0.2890 0.1941 (  3744 PWs)   bands (ev):

   -27.6779 -27.6761 -27.6657 -27.6653 -27.6599 -15.6209 -15.6171 -15.6123
   -15.6123 -15.6071  -2.0414   0.4291   7.4466   7.5363   8.9559   9.7337
     9.9473  10.2894  17.7705  18.5675  19.0441  19.4704  19.6412  20.3391
    25.4006  25.5615  26.2326  26.2805  27.5276  27.8513

          k = 0.5179-0.2990 0.2008 (  3742 PWs)   bands (ev):

   -27.6779 -27.6761 -27.6657 -27.6653 -27.6599 -15.6209 -15.6171 -15.6123
   -15.6123 -15.6071  -2.0320   0.4155   7.4465   7.5375   8.9617   9.7266
     9.9388  10.2847  17.8687  18.4762  19.2858  19.3836  19.5997  20.2029
    25.7461  25.8281  25.8826  26.0764  27.6485  27.9072

          k = 0.5142-0.2824 0.2133 (  3748 PWs)   bands (ev):

   -27.6779 -27.6761 -27.6657 -27.6653 -27.6599 -15.6209 -15.6172 -15.6124
   -15.6123 -15.6071  -2.0318   0.4192   7.4273   7.5157   8.9368   9.7357
     9.9792  10.3154  17.8441  18.4502  19.1995  19.4409  19.5954  20.3058
    25.6222  25.7246  25.9298  26.1968  27.6770  27.9174

          k = 0.5106-0.2658 0.2258 (  3756 PWs)   bands (ev):

   -27.6779 -27.6761 -27.6657 -27.6653 -27.6599 -15.6210 -15.6172 -15.6124
   -15.6123 -15.6072  -2.0313   0.4300   7.3680   7.4563   8.8729   9.7637
    10.0868  10.4053  17.7729  18.3552  19.1172  19.4828  19.6115  20.5535
    25.3556  25.6539  25.8844  26.4136  27.7462  27.9385

          k = 0.5069-0.2492 0.2384 (  3759 PWs)   bands (ev):

   -27.6779 -27.6761 -27.6657 -27.6653 -27.6600 -15.6210 -15.6173 -15.6124
   -15.6124 -15.6072  -2.0303   0.4478   7.2680   7.3710   8.7902   9.8069
    10.2411  10.5470  17.6558  18.1919  19.1101  19.5005  19.6609  20.8684
    25.0720  25.5454  25.8116  26.6348  27.8030  27.9722

          k = 0.5033-0.2327 0.2509 (  3759 PWs)   bands (ev):

   -27.6779 -27.6761 -27.6657 -27.6653 -27.6599 -15.6210 -15.6173 -15.6124
   -15.6123 -15.6072  -2.0289   0.4725   7.1352   7.2655   8.7044   9.8599
    10.4297  10.7285  17.4858  18.0123  19.1531  19.5278  19.7258  21.2128
    24.7797  25.4120  25.7287  26.8505  27.7774  28.0629

          k = 0.4996-0.2161 0.2635 (  3763 PWs)   bands (ev):

   -27.6779 -27.6762 -27.6657 -27.6653 -27.6599 -15.6210 -15.6174 -15.6125
   -15.6123 -15.6072  -2.0270   0.5038   6.9815   7.1416   8.6235   9.9201
    10.6448  10.9381  17.2601  17.8590  19.2096  19.5831  19.7992  21.5685
    24.4848  25.2659  25.6420  27.0568  27.6994  28.1906

          k = 0.4960-0.1995 0.2760 (  3764 PWs)   bands (ev):

   -27.6779 -27.6762 -27.6657 -27.6653 -27.6599 -15.6209 -15.6175 -15.6126
   -15.6123 -15.6072  -2.0245   0.5412   6.8160   7.0019   8.5505   9.9868
    10.8800  11.1670  16.9945  17.7377  19.2600  19.6720  19.8807  21.9224
    24.1949  25.1155  25.5568  27.2406  27.6166  28.3291

          k = 0.4923-0.1829 0.2886 (  3763 PWs)   bands (ev):

   -27.6779 -27.6763 -27.6657 -27.6653 -27.6599 -15.6209 -15.6176 -15.6126
   -15.6122 -15.6072  -2.0213   0.5843   6.6452   6.8506   8.4853  10.0597
    11.1302  11.4093  16.7095  17.6393  19.3019  19.7870  19.9721  22.2590
    23.9210  24.9657  25.4790  27.3361  27.6050  28.4642

          k = 0.4887-0.1663 0.3011 (  3761 PWs)   bands (ev):

   -27.6778 -27.6763 -27.6656 -27.6653 -27.6599 -15.6208 -15.6176 -15.6126
   -15.6121 -15.6072  -2.0174   0.6326   6.4731   6.6915   8.4270  10.1386
    11.3911  11.6609  16.4187  17.5566  19.3404  19.9126  20.0790  22.5480
    23.6866  24.8197  25.4171  27.2828  27.7215  28.5751

          k = 0.4850-0.1498 0.3137 (  3764 PWs)   bands (ev):

   -27.6778 -27.6763 -27.6656 -27.6652 -27.6600 -15.6208 -15.6177 -15.6126
   -15.6120 -15.6073  -2.0127   0.6855   6.3029   6.5284   8.3739  10.2232
    11.6587  11.9189  16.1300  17.4863  19.3802  20.0316  20.2098  22.7194
    23.5507  24.6799  25.3836  27.1797  27.8432  28.6179

          k = 0.4814-0.1332 0.3262 (  3761 PWs)   bands (ev):

   -27.6778 -27.6764 -27.6656 -27.6652 -27.6600 -15.6207 -15.6178 -15.6126
   -15.6119 -15.6073  -2.0071   0.7421   6.1365   6.3647   8.3249  10.3129
    11.9299  12.1810  15.8483  17.4268  19.4239  20.1359  20.3661  22.6932
    23.5756  24.5489  25.3964  27.0616  27.8627  28.5465

          k = 0.4777-0.1166 0.3388 (  3766 PWs)   bands (ev):

   -27.6778 -27.6764 -27.6656 -27.6651 -27.6600 -15.6207 -15.6179 -15.6127
   -15.6118 -15.6073  -2.0006   0.8019   5.9753   6.2034   8.2785  10.4073
    12.2012  12.4451  15.5773  17.3775  19.4721  20.2277  20.5403  22.5375
    23.6721  24.4291  25.4755  26.9267  27.6929  28.3846

          k = 0.4741-0.1000 0.3513 (  3768 PWs)   bands (ev):

   -27.6778 -27.6765 -27.6656 -27.6651 -27.6600 -15.6207 -15.6179 -15.6127
   -15.6117 -15.6073  -1.9931   0.8637   5.8202   6.0471   8.2337  10.5057
    12.4692  12.7085  15.3206  17.3382  19.5245  20.3086  20.7254  22.3521
    23.7301  24.3214  25.6250  26.7598  27.4223  28.1274

          k = 0.4704-0.0834 0.3639 (  3772 PWs)   bands (ev):

   -27.6778 -27.6765 -27.6656 -27.6651 -27.6600 -15.6208 -15.6180 -15.6127
   -15.6116 -15.6073  -1.9848   0.9267   5.6711   5.8989   8.1894  10.6075
    12.7305  12.9680  15.0829  17.3089  19.5787  20.3778  20.9171  22.1800
    23.7221  24.2228  25.7935  26.5688  27.1857  27.8388

          k = 0.4668-0.0669 0.3764 (  3779 PWs)   bands (ev):

   -27.6778 -27.6766 -27.6657 -27.6650 -27.6600 -15.6209 -15.6181 -15.6128
   -15.6115 -15.6074  -1.9755   0.9897   5.5279   5.7616   8.1447  10.7120
    12.9804  13.2182  14.8710  17.2895  19.6298  20.4347  21.1124  22.0417
    23.6622  24.1275  25.7805  26.5290  27.0235  27.5596

          k = 0.4631-0.0503 0.3890 (  3776 PWs)   bands (ev):

   -27.6777 -27.6766 -27.6657 -27.6650 -27.6600 -15.6209 -15.6181 -15.6128
   -15.6114 -15.6073  -1.9654   1.0516   5.3899   5.6384   8.0987  10.8186
    13.2110  13.4510  14.6972  17.2801  19.6703  20.4834  21.3090  21.9480
    23.5711  24.0301  25.4912  26.7109  26.9372  27.3214

          k = 0.4595-0.0337 0.4015 (  3775 PWs)   bands (ev):

   -27.6777 -27.6766 -27.6657 -27.6649 -27.6599 -15.6209 -15.6181 -15.6129
   -15.6113 -15.6073  -1.9546   1.1112   5.2566   5.5321   8.0505  10.9263
    13.4036  13.6586  14.5840  17.2806  19.6905  20.5350  21.5039  21.9016
    23.4617  23.9287  25.1105  26.7021  27.0082  27.2690

          k = 0.4558-0.0171 0.4140 (  3777 PWs)   bands (ev):

   -27.6778 -27.6767 -27.6657 -27.6649 -27.6599 -15.6209 -15.6181 -15.6129
   -15.6112 -15.6073  -1.9431   1.1672   5.1280   5.4446   7.9992  11.0345
    13.5176  13.8475  14.5606  17.2909  19.6842  20.6054  21.6906  21.8990
    23.3397  23.8233  24.7198  26.5501  26.9402  27.5681

          k = 0.4522-0.0005 0.4266 (  3781 PWs)   bands (ev):

   -27.6778 -27.6767 -27.6657 -27.6648 -27.6599 -15.6210 -15.6181 -15.6129
   -15.6111 -15.6073  -1.9311   1.2183   5.0047   5.3773   7.9440  11.1423
    13.5269  14.0365  14.6282  17.3108  19.6550  20.7057  21.8331  21.9580
    23.2030  23.7149  24.3536  26.3713  26.8862  27.9028

          k = 0.4486 0.0160 0.4391 (  3780 PWs)   bands (ev):

   -27.6778 -27.6767 -27.6657 -27.6648 -27.6599 -15.6211 -15.6180 -15.6130
   -15.6111 -15.6073  -1.9187   1.2633   4.8878   5.3309   7.8842  11.2485
    13.4667  14.2264  14.7444  17.3399  19.6168  20.8382  21.8766  22.1104
    23.0405  23.6062  24.0448  26.1981  26.8621  28.0970

          k = 0.4449 0.0326 0.4517 (  3782 PWs)   bands (ev):

   -27.6778 -27.6766 -27.6657 -27.6648 -27.6599 -15.6212 -15.6180 -15.6130
   -15.6110 -15.6073  -1.9061   1.3013   4.7782   5.3059   7.8190  11.3524
    13.3809  14.4096  14.8653  17.3777  19.5871  20.9996  21.8697  22.2791
    22.8382  23.5070  23.8243  26.0438  26.8600  27.9650

          k = 0.4413 0.0492 0.4642 (  3778 PWs)   bands (ev):

   -27.6779 -27.6766 -27.6657 -27.6647 -27.6599 -15.6213 -15.6179 -15.6130
   -15.6108 -15.6073  -1.8934   1.3315   4.6771   5.3024   7.7479  11.4528
    13.2934  14.5809  14.9651  17.4235  19.5819  21.1842  21.8129  22.3976
    22.6415  23.4316  23.6985  25.9132  26.8736  27.7240

          k = 0.4376 0.0658 0.4768 (  3772 PWs)   bands (ev):

   -27.6779 -27.6766 -27.6657 -27.6647 -27.6599 -15.6213 -15.6179 -15.6130
   -15.6108 -15.6072  -1.8809   1.3533   4.5851   5.3205   7.6705  11.5488
    13.2153  14.7358  15.0319  17.4764  19.6129  21.3801  21.6915  22.2639
    22.6873  23.3801  23.6554  25.8081  26.8900  27.4829

          k = 0.4340 0.0824 0.4893 (  3767 PWs)   bands (ev):

   -27.6779 -27.6766 -27.6657 -27.6647 -27.6599 -15.6214 -15.6177 -15.6130
   -15.6107 -15.6071  -1.8687   1.3666   4.5032   5.3596   7.5867  11.6396
    13.1514  14.8648  15.0670  17.5351  19.6863  21.4357  21.6208  22.0849
    22.8193  23.3529  23.6785  25.7286  26.8642  27.3021

          k = 0.4303 0.0989 0.5019 (  3770 PWs)   bands (ev):

   -27.6780 -27.6766 -27.6657 -27.6647 -27.6599 -15.6215 -15.6177 -15.6130
   -15.6106 -15.6072  -1.8569   1.3714   4.4318   5.4192   7.4965  11.7248
    13.1028  14.9330  15.1041  17.5986  19.8027  21.1713  21.6953  22.0654
    22.9128  23.3775  23.7452  25.6740  26.7180  27.2619

          k = 0.4267 0.1155 0.5144 (  3773 PWs)   bands (ev):

   -27.6780 -27.6765 -27.6657 -27.6647 -27.6599 -15.6215 -15.6176 -15.6130
   -15.6106 -15.6072  -1.8458   1.3684   4.3717   5.4981   7.4003  11.8045
    13.0682  14.9063  15.1806  17.6658  19.9562  20.8596  21.6151  22.2607
    22.9389  23.4768  23.8367  25.6427  26.4872  27.3217

          k = 0.4230 0.1321 0.5270 (  3770 PWs)   bands (ev):

   -27.6780 -27.6765 -27.6656 -27.6647 -27.6599 -15.6216 -15.6175 -15.6130
   -15.6106 -15.6072  -1.8354   1.3580   4.3232   5.5950   7.2987  11.8793
    13.0438  14.8252  15.2631  17.7359  20.1247  20.5554  21.4988  22.5247
    22.9225  23.6254  23.9427  25.6313  26.2339  27.3909

          k = 0.4194 0.1487 0.5395 (  3773 PWs)   bands (ev):

   -27.6781 -27.6765 -27.6656 -27.6647 -27.6599 -15.6217 -15.6175 -15.6130
   -15.6106 -15.6072  -1.8259   1.3413   4.2867   5.7081   7.1930  11.9501
    13.0232  14.7200  15.3312  17.8077  20.1205  20.4512  21.3884  22.7924
    22.9112  23.7899  24.0600  25.6254  25.9901  27.3414

          k = 0.4157 0.1653 0.5521 (  3773 PWs)   bands (ev):

   -27.6781 -27.6764 -27.6656 -27.6647 -27.6599 -15.6218 -15.6175 -15.6130
   -15.6106 -15.6072  -1.8174   1.3191   4.2625   5.8349   7.0848  12.0180
    12.9976  14.6085  15.3785  17.8793  19.8507  20.6348  21.2974  22.8423
    23.1281  23.9527  24.1895  25.5474  25.8386  27.1709

          k = 0.4121 0.1819 0.5646 (  3775 PWs)   bands (ev):

   -27.6781 -27.6764 -27.6656 -27.6647 -27.6599 -15.6218 -15.6174 -15.6130
   -15.6107 -15.6072  -1.8100   1.2924   4.2509   5.9717   6.9774  12.0835
    12.9564  14.5073  15.4016  17.9461  19.5698  20.8350  21.2438  22.8281
    23.4157  24.1095  24.3317  25.3295  25.8471  26.9823

          k = 0.4084 0.1984 0.5772 (  3780 PWs)   bands (ev):

   -27.6781 -27.6764 -27.6656 -27.6647 -27.6599 -15.6218 -15.6174 -15.6130
   -15.6108 -15.6072  -1.8035   1.2623   4.2520   6.1116   6.8770  12.1449
    12.8912  14.4312  15.3988  17.9984  19.3189  20.9612  21.2783  22.8319
    23.6791  24.2703  24.4818  25.0746  25.9097  26.8191

          k = 0.4048 0.2150 0.5897 (  3782 PWs)   bands (ev):

   -27.6781 -27.6764 -27.6656 -27.6647 -27.6599 -15.6218 -15.6174 -15.6130
   -15.6108 -15.6072  -1.7982   1.2296   4.2657   6.2375   6.8005  12.1955
    12.8017  14.3907  15.3689  18.0158  19.1239  20.9818  21.4132  22.8681
    23.8825  24.4419  24.6176  24.8590  25.9639  26.7189

          k = 0.4011 0.2316 0.6023 (  3782 PWs)   bands (ev):

   -27.6781 -27.6763 -27.6656 -27.6648 -27.6599 -15.6218 -15.6174 -15.6130
   -15.6108 -15.6073  -1.7937   1.1952   4.2921   6.3076   6.7889  12.2142
    12.7091  14.3887  15.3122  17.9697  19.0162  20.9709  21.5556  22.9489
    23.9873  24.5198  24.6210  24.9442  25.9611  26.7170

          k = 0.4109 0.2372 0.5855 (  3786 PWs)   bands (ev):

   -27.6782 -27.6763 -27.6657 -27.6647 -27.6599 -15.6219 -15.6173 -15.6131
   -15.6108 -15.6072  -1.7898   1.2567   4.2512   6.2416   6.6727  12.1936
    12.9023  14.3514  15.4152  18.1886  19.2331  21.0935  21.2351  22.7509
    23.9095  24.3853  24.5032  24.8772  25.8944  26.4226

          k = 0.4206 0.2428 0.5688 (  3783 PWs)   bands (ev):

   -27.6782 -27.6763 -27.6657 -27.6647 -27.6598 -15.6220 -15.6172 -15.6132
   -15.6107 -15.6071  -1.7895   1.3221   4.2171   6.1808   6.5600  12.1420
    13.0950  14.3585  15.5128  18.4123  19.4533  20.9279  21.1903  22.5720
    23.8091  24.2419  24.3734  24.8161  25.7757  26.1504

          k = 0.4303 0.2484 0.5521 (  3777 PWs)   bands (ev):

   -27.6782 -27.6762 -27.6658 -27.6647 -27.6598 -15.6220 -15.6170 -15.6133
   -15.6107 -15.6070  -1.7920   1.3892   4.1898   6.1254   6.4514  12.0679
    13.2855  14.4012  15.6041  18.6404  19.6736  20.6388  21.2447  22.4364
    23.6671  24.0858  24.2665  24.7609  25.6352  25.9044

          k = 0.4400 0.2541 0.5353 (  3773 PWs)   bands (ev):

   -27.6782 -27.6762 -27.6658 -27.6647 -27.6598 -15.6220 -15.6169 -15.6134
   -15.6105 -15.6070  -1.7964   1.4560   4.1693   6.0755   6.3475  11.9805
    13.4718  14.4687  15.6885  18.8720  19.8795  20.3844  21.2399  22.3648
    23.4789  23.9138  24.1981  24.7115  25.4883  25.6879

          k = 0.4498 0.2597 0.5186 (  3776 PWs)   bands (ev):

   -27.6782 -27.6762 -27.6659 -27.6646 -27.6598 -15.6221 -15.6169 -15.6135
   -15.6104 -15.6070  -1.8020   1.5204   4.1552   6.0313   6.2496  11.8886
    13.6511  14.5513  15.7651  19.1063  19.9532  20.2845  21.1747  22.3601
    23.2582  23.7239  24.1634  24.6678  25.3412  25.5031

          k = 0.4595 0.2653 0.5019 (  3765 PWs)   bands (ev):

   -27.6782 -27.6761 -27.6659 -27.6646 -27.6598 -15.6221 -15.6168 -15.6134
   -15.6104 -15.6069  -1.8081   1.5805   4.1470   5.9927   6.1589  11.7990
    13.8204  14.6402  15.8331  19.3416  19.7830  20.4539  21.0691  22.4009
    23.0242  23.5163  24.1525  24.6299  25.1968  25.3506

          k = 0.4692 0.2709 0.4851 (  3765 PWs)   bands (ev):

   -27.6782 -27.6761 -27.6659 -27.6646 -27.6597 -15.6221 -15.6167 -15.6135
   -15.6103 -15.6069  -1.8142   1.6346   4.1437   5.9600   6.0770  11.7167
    13.9760  14.7282  15.8920  19.5756  19.5807  20.6833  20.9480  22.4480
    22.8043  23.2932  24.1587  24.5978  25.0569  25.2286

          k = 0.4790 0.2765 0.4684 (  3769 PWs)   bands (ev):

   -27.6782 -27.6761 -27.6660 -27.6646 -27.6597 -15.6222 -15.6168 -15.6135
   -15.6103 -15.6069  -1.8198   1.6810   4.1442   5.9331   6.0059  11.6454
    14.1133  14.8092  15.9411  19.3984  19.8043  20.8301  20.9243  22.4037
    22.6872  23.0586  24.1782  24.5714  24.9235  25.1344

          k = 0.4887 0.2821 0.4517 (  3766 PWs)   bands (ev):

   -27.6782 -27.6761 -27.6660 -27.6646 -27.6597 -15.6222 -15.6167 -15.6135
   -15.6103 -15.6069  -1.8245   1.7184   4.1469   5.9122   5.9476  11.5876
    14.2277  14.8781  15.9798  19.2473  20.0210  20.7267  21.1679  22.2263
    22.7127  22.8180  24.2089  24.5509  24.8000  25.0649

          k = 0.4984 0.2878 0.4350 (  3769 PWs)   bands (ev):

   -27.6782 -27.6761 -27.6660 -27.6646 -27.6597 -15.6222 -15.6167 -15.6136
   -15.6102 -15.6069  -1.8281   1.7459   4.1504   5.8972   5.9040  11.5452
    14.3141  14.9306  16.0078  19.1342  20.2134  20.6443  21.4067  22.0398
    22.5799  22.7627  24.2479  24.5362  24.6912  25.0173

          k = 0.5081 0.2934 0.4182 (  3772 PWs)   bands (ev):

   -27.6782 -27.6761 -27.6661 -27.6646 -27.6597 -15.6222 -15.6167 -15.6138
   -15.6102 -15.6069  -1.8303   1.7627   4.1532   5.8771   5.8882  11.5194
    14.3680  14.9634  16.0247  19.0640  20.3607  20.5844  21.6209  21.9007
    22.3654  22.7994  24.2875  24.5274  24.6081  24.9896

          k = 0.5179 0.2990 0.4015 (  3768 PWs)   bands (ev):

   -27.6782 -27.6761 -27.6660 -27.6646 -27.6597 -15.6222 -15.6167 -15.6137
   -15.6102 -15.6068  -1.8310   1.7683   4.1543   5.8680   5.8852  11.5107
    14.3864  14.9746  16.0304  19.0402  20.4248  20.5552  21.7294  21.8480
    22.2567  22.8126  24.3070  24.5245  24.5738  24.9805

          k = 0.5026 0.2902 0.3897 (  3771 PWs)   bands (ev):

   -27.6782 -27.6761 -27.6661 -27.6646 -27.6597 -15.6222 -15.6168 -15.6137
   -15.6103 -15.6068  -1.8372   1.7703   4.1673   5.8718   5.8879  11.5131
    14.3808  14.9691  15.9989  19.0292  20.2988  20.6901  21.7278  21.8335
    22.2793  22.8417  24.0651  24.2846  24.8548  25.2361

          k = 0.4874 0.2814 0.3779 (  3771 PWs)   bands (ev):

   -27.6782 -27.6761 -27.6660 -27.6646 -27.6597 -15.6221 -15.6168 -15.6137
   -15.6103 -15.6069  -1.8554   1.7763   4.2061   5.8834   5.8960  11.5205
    14.3643  14.9528  15.9067  18.9965  20.1320  20.8812  21.7246  21.7926
    22.3415  22.9076  23.7969  23.9244  25.2594  25.6465

          k = 0.4722 0.2726 0.3661 (  3773 PWs)   bands (ev):

   -27.6782 -27.6761 -27.6660 -27.6646 -27.6598 -15.6222 -15.6168 -15.6137
   -15.6102 -15.6070  -1.8852   1.7866   4.2698   5.9028   5.9095  11.5327
    14.3373  14.9258  15.7598  18.9438  19.9669  21.0770  21.7214  21.7269
    22.4283  22.9434  23.5824  23.6686  25.6868  26.0851

          k = 0.4569 0.2638 0.3543 (  3772 PWs)   bands (ev):

   -27.6782 -27.6761 -27.6660 -27.6646 -27.6598 -15.6221 -15.6168 -15.6137
   -15.6103 -15.6070  -1.9258   1.8016   4.3567   5.9283   5.9304  11.5496
    14.3002  14.8888  15.5667  18.8733  19.8036  21.2531  21.6405  21.7109
    22.5112  22.9051  23.3054  23.7452  26.0715  26.2230

          k = 0.4417 0.2550 0.3425 (  3772 PWs)   bands (ev):

   -27.6782 -27.6762 -27.6660 -27.6646 -27.6598 -15.6221 -15.6169 -15.6136
   -15.6103 -15.6071  -1.9763   1.8217   4.4649   5.9523   5.9665  11.5712
    14.2539  14.8418  15.3372  18.7877  19.6409  21.2926  21.6277  21.6695
    22.5374  22.8719  23.1697  23.9637  25.7361  26.6042

          k = 0.4265 0.2462 0.3306 (  3767 PWs)   bands (ev):

   -27.6782 -27.6762 -27.6660 -27.6646 -27.6598 -15.6220 -15.6169 -15.6135
   -15.6103 -15.6071  -2.0355   1.8473   4.5921   5.9815   6.0117  11.5973
    14.1994  14.7818  15.0836  18.6897  19.4778  21.1085  21.5566  21.7732
    22.5052  22.9071  23.2161  24.2558  25.3314  27.0686

          k = 0.4112 0.2374 0.3188 (  3764 PWs)   bands (ev):

   -27.6781 -27.6763 -27.6660 -27.6646 -27.6599 -15.6219 -15.6170 -15.6134
   -15.6103 -15.6071  -2.1021   1.8789   4.7355   6.0159   6.0670  11.6276
    14.1375  14.6811  14.8424  18.5819  19.3138  20.8398  21.3511  21.9550
    22.5084  23.0130  23.3689  24.5907  24.9339  27.5426

          k = 0.3960 0.2286 0.3070 (  3768 PWs)   bands (ev):

   -27.6781 -27.6763 -27.6659 -27.6647 -27.6599 -15.6218 -15.6171 -15.6134
   -15.6104 -15.6072  -2.1749   1.9166   4.8919   6.0551   6.1336  11.6620
    14.0693  14.4470  14.7139  18.4665  19.1484  20.5400  21.0785  22.1412
    22.5773  23.1710  23.5694  24.5316  24.9723  28.0212

          k = 0.3808 0.2198 0.2952 (  3756 PWs)   bands (ev):

   -27.6781 -27.6764 -27.6659 -27.6647 -27.6600 -15.6216 -15.6172 -15.6133
   -15.6103 -15.6072  -2.2527   1.9608   5.0576   6.0993   6.2133  11.7000
    13.9959  14.1464  14.6375  18.3455  18.9808  20.2296  20.7733  22.3279
    22.6964  23.3590  23.7966  24.1568  25.3680  28.4909

          k = 0.3655 0.2110 0.2834 (  3754 PWs)   bands (ev):

   -27.6781 -27.6765 -27.6659 -27.6647 -27.6600 -15.6214 -15.6172 -15.6132
   -15.6104 -15.6073  -2.3341   2.0114   5.2284   6.1480   6.3087  11.7412
    13.8298  13.9183  14.5683  18.2201  18.8095  19.9203  20.4562  22.5113
    22.8508  23.5271  23.8350  24.0425  25.7865  28.7576

          k = 0.3503 0.2023 0.2716 (  3760 PWs)   bands (ev):

   -27.6781 -27.6765 -27.6659 -27.6648 -27.6601 -15.6213 -15.6174 -15.6131
   -15.6106 -15.6074  -2.4182   2.0686   5.3995   6.2013   6.4226  11.7853
    13.5068  13.8374  14.5015  18.0913  18.6322  19.6205  20.1381  22.6716
    23.0319  23.3896  23.8615  24.3031  26.2201  28.3691

          k = 0.3351 0.1935 0.2598 (  3760 PWs)   bands (ev):

   -27.6781 -27.6766 -27.6658 -27.6648 -27.6602 -15.6213 -15.6174 -15.6131
   -15.6106 -15.6075  -2.5038   2.1323   5.5660   6.2588   6.5582  11.8314
    13.1815  13.7543  14.4373  17.9598  18.4454  19.3376  19.8251  22.7047
    23.2119  23.2348  24.0615  24.5763  26.6562  27.9173

          k = 0.3199 0.1847 0.2480 (  3762 PWs)   bands (ev):

   -27.6781 -27.6767 -27.6658 -27.6649 -27.6602 -15.6212 -15.6176 -15.6130
   -15.6107 -15.6076  -2.5900   2.2024   5.7237   6.3204   6.7180  11.8790
    12.8569  13.6696  14.3767  17.8253  18.2450  19.0785  19.5212  22.4802
    23.2829  23.4561  24.2564  24.8607  27.0223  27.5867

          k = 0.3046 0.1759 0.2362 (  3758 PWs)   bands (ev):

   -27.6781 -27.6768 -27.6658 -27.6649 -27.6603 -15.6211 -15.6177 -15.6129
   -15.6107 -15.6077  -2.6760   2.2789   5.8703   6.3856   6.9024  11.9271
    12.5353  13.5843  14.3211  17.6877  18.0282  18.8477  19.2296  22.1591
    23.4404  23.6940  24.4165  25.1553  26.9698  27.7612

          k = 0.2894 0.1671 0.2244 (  3766 PWs)   bands (ev):

   -27.6781 -27.6769 -27.6657 -27.6649 -27.6603 -15.6210 -15.6180 -15.6129
   -15.6108 -15.6078  -2.7610   2.3615   6.0055   6.4543   7.1094  11.9746
    12.2192  13.4989  14.2721  17.5459  17.7954  18.6466  18.9529  21.8218
    23.5752  23.9464  24.5281  25.4594  26.7712  28.2093

          k = 0.2742 0.1583 0.2126 (  3770 PWs)   bands (ev):

   -27.6781 -27.6770 -27.6657 -27.6650 -27.6604 -15.6209 -15.6181 -15.6128
   -15.6108 -15.6080  -2.8445   2.4501   6.1309   6.5260   7.3350  11.9090
    12.0224  13.4142  14.2312  17.3989  17.5507  18.4723  18.6940  21.4842
    23.6088  24.2121  24.6193  25.7723  26.6928  28.6971

          k = 0.2589 0.1495 0.2008 (  3772 PWs)   bands (ev):

   -27.6781 -27.6771 -27.6657 -27.6650 -27.6605 -15.6208 -15.6183 -15.6127
   -15.6109 -15.6081  -2.9257   2.5443   6.2486   6.6003   7.5737  11.6120
    12.0650  13.3306  14.2000  17.2454  17.3000  18.3201  18.4555  21.1508
    23.4731  24.4903  24.7584  26.0937  26.7542  29.1964

          k = 0.2437 0.1407 0.1889 (  3767 PWs)   bands (ev):

   -27.6781 -27.6772 -27.6657 -27.6650 -27.6606 -15.6206 -15.6183 -15.6125
   -15.6109 -15.6082  -3.0042   2.6440   6.3606   6.6768   7.8190  11.3292
    12.1042  13.2487  14.1800  17.0491  17.0844  18.1854  18.2396  20.8235
    23.1835  24.7802  24.9670  26.4232  26.9212  29.6954

          k = 0.2285 0.1319 0.1771 (  3769 PWs)   bands (ev):

   -27.6781 -27.6772 -27.6656 -27.6651 -27.6606 -15.6206 -15.6185 -15.6124
   -15.6110 -15.6083  -3.0797   2.7488   6.4684   6.7550   8.0629  11.0671
    12.1383  13.1689  14.1727  16.8024  16.9158  18.0472  18.0648  20.5033
    22.8003  25.0807  25.2234  26.7602  27.1553  30.1685

          k = 0.2132 0.1231 0.1653 (  3767 PWs)   bands (ev):

   -27.6781 -27.6773 -27.6656 -27.6651 -27.6607 -15.6204 -15.6186 -15.6123
   -15.6110 -15.6084  -3.1516   2.8582   6.5730   6.8342   8.2940  10.8353
    12.1662  13.0917  14.1792  16.5636  16.7409  17.8781  17.9559  20.1909
    22.3677  25.3915  25.5092  27.1044  27.4310  30.5077

          k = 0.1980 0.1143 0.1535 (  3759 PWs)   bands (ev):

   -27.6781 -27.6774 -27.6656 -27.6652 -27.6607 -15.6203 -15.6186 -15.6121
   -15.6110 -15.6084  -3.2196   2.9718   6.6749   6.9139   8.4950  10.6496
    12.1871  13.0174  14.2003  16.3355  16.5621  17.7310  17.8571  19.8869
    21.9100  25.7119  25.8147  27.4555  27.7329  30.5928

          k = 0.1828 0.1055 0.1417 (  3762 PWs)   bands (ev):

   -27.6781 -27.6775 -27.6655 -27.6652 -27.6608 -15.6202 -15.6188 -15.6120
   -15.6110 -15.6086  -3.2836   3.0888   6.7741   6.9933   8.6413  10.5332
    12.2008  12.9463  14.2362  16.1207  16.3827  17.6036  17.7672  19.5917
    21.4409  26.0412  26.1348  27.8129  28.0521  30.5807

          k = 0.1675 0.0967 0.1299 (  3765 PWs)   bands (ev):

   -27.6781 -27.6776 -27.6655 -27.6652 -27.6609 -15.6202 -15.6189 -15.6119
   -15.6111 -15.6087  -3.3432   3.2086   6.8704   7.0717   8.7063  10.5112
    12.2077  12.8787  14.2864  15.9215  16.2059  17.4932  17.6855  19.3060
    20.9687  26.3793  26.4666  28.1762  28.3827  30.5496

          k = 0.1523 0.0879 0.1181 (  3768 PWs)   bands (ev):

   -27.6781 -27.6777 -27.6655 -27.6653 -27.6609 -15.6201 -15.6190 -15.6118
   -15.6112 -15.6088  -3.3982   3.3302   6.9633   7.1482   8.6813  10.5908
    12.2086  12.8151  14.3501  15.7401  16.0352  17.3975  17.6114  19.0306
    20.4988  26.7256  26.8084  28.5449  28.7205  30.5154

          k = 0.1371 0.0791 0.1063 (  3768 PWs)   bands (ev):

   -27.6781 -27.6777 -27.6655 -27.6653 -27.6610 -15.6200 -15.6191 -15.6117
   -15.6113 -15.6089  -3.4484   3.4523   7.0521   7.2218   8.5848  10.7513
    12.2049  12.7558  14.4256  15.5793  15.8735  17.3147  17.5444  18.7663
    20.0356  27.0797  27.1588  28.9180  29.0618  30.4827

          k = 0.1218 0.0703 0.0945 (  3770 PWs)   bands (ev):

   -27.6781 -27.6778 -27.6655 -27.6653 -27.6610 -15.6199 -15.6192 -15.6117
   -15.6113 -15.6089  -3.4937   3.5735   7.1359   7.2916   8.4463  10.9605
    12.1987  12.7011  14.5109  15.4416  15.7230  17.2433  17.4841  18.5144
    19.5829  27.4411  27.5167  29.2945  29.4025  30.4533

          k = 0.1066 0.0616 0.0827 (  3770 PWs)   bands (ev):

   -27.6781 -27.6778 -27.6655 -27.6654 -27.6611 -15.6198 -15.6192 -15.6116
   -15.6113 -15.6090  -3.5340   3.6919   7.2136   7.3567   8.2893  11.1904
    12.1930  12.6513  14.6033  15.3301  15.5860  17.1821  17.4297  18.2764
    19.1451  27.8094  27.8808  29.6725  29.7371  30.4294

          k = 0.0914 0.0528 0.0709 (  3778 PWs)   bands (ev):

   -27.6781 -27.6779 -27.6655 -27.6654 -27.6611 -15.6198 -15.6194 -15.6116
   -15.6113 -15.6091  -3.5691   3.8052   7.2840   7.4158   8.1300  11.4185
    12.1926  12.6070  14.6997  15.2479  15.4640  17.1303  17.3804  18.0546
    18.7274  28.1839  28.2498  30.0492  30.0538  30.4172

          k = 0.0762 0.0440 0.0590 (  3778 PWs)   bands (ev):

   -27.6781 -27.6779 -27.6655 -27.6654 -27.6611 -15.6198 -15.6195 -15.6115
   -15.6114 -15.6091  -3.5989   3.9105   7.3458   7.4681   7.9791  11.6230
    12.2056  12.5684  14.7960  15.1980  15.3585  17.0872  17.3342  17.8517
    18.3377  28.5638  28.6220  30.2880  30.4194  30.4717

          k = 0.0609 0.0352 0.0472 (  3784 PWs)   bands (ev):

   -27.6781 -27.6780 -27.6655 -27.6654 -27.6612 -15.6198 -15.6195 -15.6115
   -15.6114 -15.6092  -3.6234   4.0045   7.3975   7.5124   7.8448  11.7799
    12.2447  12.5361  14.8879  15.1811  15.2707  17.0525  17.2866  17.6718
    17.9886  28.9475  28.9940  30.3288  30.6845  30.7716

          k = 0.0457 0.0264 0.0354 (  3782 PWs)   bands (ev):

   -27.6781 -27.6780 -27.6654 -27.6654 -27.6612 -15.6197 -15.6196 -15.6114
   -15.6114 -15.6091  -3.6425   4.0836   7.4374   7.5480   7.7341  11.8736
    12.3151  12.5105  14.9714  15.1932  15.2014  17.0258  17.2263  17.5197
    17.7039  29.3326  29.3609  30.3242  30.8518  31.0180

          k = 0.0305 0.0176 0.0236 (  3782 PWs)   bands (ev):

   -27.6781 -27.6780 -27.6654 -27.6654 -27.6612 -15.6197 -15.6197 -15.6114
   -15.6114 -15.6091  -3.6562   4.1437   7.4633   7.5740   7.6538  11.9167
    12.3955  12.4919  15.0422  15.1514  15.2225  17.0069  17.1359  17.4024
    17.5185  29.7106  29.7124  30.3140  30.8852  31.0845

          k = 0.0152 0.0088 0.0118 (  3783 PWs)   bands (ev):

   -27.6781 -27.6781 -27.6654 -27.6654 -27.6612 -15.6197 -15.6197 -15.6114
   -15.6114 -15.6091  -3.6645   4.1815   7.4743   7.5898   7.6085  11.9334
    12.4552  12.4806  15.0925  15.1212  15.2516  16.9955  17.0355  17.3291
    17.4345  30.0133  30.0641  30.2958  30.8730  31.0196

          k = 0.0000 0.0000 0.0000 (  3793 PWs)   bands (ev):

   -27.6781 -27.6781 -27.6654 -27.6654 -27.6612 -15.6199 -15.6199 -15.6114
   -15.6114 -15.6091  -3.6672   4.1944   7.4759   7.5951   7.5951  11.9377
    12.4768  12.4768  15.1110  15.1110  15.2639  16.9918  16.9918  17.3042
    17.4125  30.1782  30.2592  30.2592  30.8557  30.8557

          k = 0.0000 0.0000 0.0208 (  3793 PWs)   bands (ev):

   -27.6781 -27.6781 -27.6654 -27.6654 -27.6612 -15.6198 -15.6198 -15.6114
   -15.6114 -15.6092  -3.6647   4.1803   7.4851   7.5955   7.5955  11.9337
    12.4659  12.4659  15.1149  15.1149  15.2527  17.0108  17.0108  17.3246
    17.4307  30.0007  30.0357  30.0357  31.0629  31.0629

          k = 0.0000 0.0000 0.0415 (  3796 PWs)   bands (ev):

   -27.6781 -27.6781 -27.6654 -27.6654 -27.6612 -15.6199 -15.6199 -15.6114
   -15.6114 -15.6092  -3.6573   4.1386   7.5122   7.5964   7.5964  11.9218
    12.4337  12.4337  15.1268  15.1268  15.2213  17.0673  17.0673  17.3821
    17.4871  29.6449  29.6449  29.6483  31.3944  31.3944

          k = 0.0000 0.0000 0.0623 (  3790 PWs)   bands (ev):

   -27.6781 -27.6781 -27.6654 -27.6654 -27.6612 -15.6197 -15.6197 -15.6114
   -15.6114 -15.6093  -3.6448   4.0713   7.5553   7.5980   7.5980  11.9022
    12.3816  12.3816  15.1475  15.1475  15.1752  17.1590  17.1590  17.4679
    17.5845  29.2237  29.2237  29.2513  31.6722  31.6722

          k = 0.0000 0.0000 0.0831 (  3790 PWs)   bands (ev):

   -27.6781 -27.6781 -27.6654 -27.6654 -27.6612 -15.6197 -15.6197 -15.6114
   -15.6114 -15.6093  -3.6275   3.9809   7.6003   7.6003   7.6118  11.8750
    12.3115  12.3115  15.1211  15.1780  15.1780  17.2830  17.2830  17.5761
    17.7217  28.7944  28.7944  28.8410  31.8270  31.8270

          k = 0.0000 0.0000 0.1038 (  3793 PWs)   bands (ev):

   -27.6781 -27.6781 -27.6654 -27.6654 -27.6612 -15.6197 -15.6197 -15.6114
   -15.6114 -15.6094  -3.6053   3.8705   7.6033   7.6033   7.6787  11.8407
    12.2259  12.2259  15.0657  15.2192  15.2192  17.4357  17.4357  17.7060
    17.8919  28.3632  28.3632  28.4272  31.9019  31.9019

          k = 0.0000 0.0000 0.1246 (  3787 PWs)   bands (ev):

   -27.6781 -27.6781 -27.6654 -27.6654 -27.6612 -15.6197 -15.6197 -15.6114
   -15.6114 -15.6092  -3.5783   3.7433   7.6072   7.6072   7.7531  11.7995
    12.1272  12.1272  15.0146  15.2719  15.2719  17.6137  17.6137  17.8580
    18.0881  27.9332  27.9332  28.0143  31.9515  31.9515

          k = 0.0000 0.0000 0.1454 (  3784 PWs)   bands (ev):

   -27.6781 -27.6781 -27.6653 -27.6653 -27.6611 -15.6198 -15.6198 -15.6113
   -15.6113 -15.6091  -3.5465   3.6024   7.6118   7.6118   7.8321  11.7519
    12.0183  12.0183  14.9725  15.3363  15.3363  17.8140  17.8140  18.0315
    18.3051  27.5059  27.5059  27.6052  31.9936  31.9936

          k = 0.0000 0.0000 0.1661 (  3772 PWs)   bands (ev):

   -27.6781 -27.6781 -27.6653 -27.6653 -27.6611 -15.6198 -15.6198 -15.6112
   -15.6112 -15.6090  -3.5102   3.4506   7.6174   7.6174   7.9133  11.6983
    11.9015  11.9015  14.9428  15.4129  15.4129  18.0338  18.0338  18.2254
    18.5391  27.0824  27.0824  27.2018  32.0320  32.0320

          k = 0.0000 0.0000 0.1869 (  3772 PWs)   bands (ev):

   -27.6781 -27.6781 -27.6652 -27.6652 -27.6611 -15.6198 -15.6198 -15.6112
   -15.6112 -15.6090  -3.4694   3.2903   7.6239   7.6239   7.9946  11.6392
    11.7791  11.7791  14.9282  15.5014  15.5014  18.2705  18.2705  18.4378
    18.7874  26.6635  26.6635  26.8064  32.0652  32.0652

          k = 0.0000 0.0000 0.2077 (  3765 PWs)   bands (ev):

   -27.6781 -27.6781 -27.6652 -27.6652 -27.6610 -15.6198 -15.6198 -15.6111
   -15.6111 -15.6089  -3.4243   3.1236   7.6315   7.6315   8.0744  11.5750
    11.6530  11.6530  14.9304  15.6018  15.6018  18.5224  18.5224  18.6662
    19.0481  26.2497  26.2497  26.4209  32.0870  32.0870

          k = 0.0000 0.0000 0.2284 (  3765 PWs)   bands (ev):

   -27.6781 -27.6781 -27.6651 -27.6651 -27.6610 -15.6198 -15.6198 -15.6111
   -15.6111 -15.6089  -3.3750   2.9525   7.6401   7.6401   8.1515  11.5066
    11.5251  11.5251  14.9507  15.7138  15.7138  18.7876  18.7876  18.9074
    19.3201  25.8415  25.8415  26.0478  32.0823  32.0823

          k = 0.0000 0.0000 0.2492 (  3765 PWs)   bands (ev):

   -27.6781 -27.6781 -27.6651 -27.6651 -27.6610 -15.6199 -15.6199 -15.6110
   -15.6110 -15.6089  -3.3218   2.7786   7.6499   7.6499   8.2249  11.3967
    11.3967  11.4345  14.9895  15.8371  15.8371  19.0647  19.0647  19.1575
    19.6028  25.4393  25.4393  25.6902  32.0194  32.0194

          k = 0.0000 0.0000 0.2700 (  3771 PWs)   bands (ev):

   -27.6781 -27.6781 -27.6650 -27.6650 -27.6610 -15.6200 -15.6200 -15.6110
   -15.6110 -15.6089  -3.2650   2.6035   7.6607   7.6607   8.2943  11.2691
    11.2691  11.3597  15.0471  15.9714  15.9714  19.3524  19.3524  19.4107
    19.8965  25.0438  25.0438  25.3519  31.8524  31.8524

          k = 0.0000 0.0000 0.2907 (  3777 PWs)   bands (ev):

   -27.6781 -27.6781 -27.6650 -27.6650 -27.6610 -15.6201 -15.6201 -15.6109
   -15.6109 -15.6091  -3.2048   2.4284   7.6727   7.6727   8.3591  11.1436
    11.1436  11.2830  15.1229  16.1165  16.1165  19.6495  19.6495  19.6598
    20.2021  24.6553  24.6553  25.0380  31.5673  31.5673

          k = 0.0000 0.0000 0.3115 (  3789 PWs)   bands (ev):

   -27.6781 -27.6781 -27.6650 -27.6650 -27.6610 -15.6201 -15.6201 -15.6110
   -15.6110 -15.6091  -3.1417   2.2547   7.6857   7.6857   8.4193  11.0210
    11.0210  11.2052  15.2164  16.2720  16.2720  19.8952  19.9546  19.9546
    20.5211  24.2744  24.2744  24.7555  31.2013  31.2013

          k = 0.0000 0.0000 0.3323 (  3780 PWs)   bands (ev):

   -27.6781 -27.6781 -27.6649 -27.6649 -27.6609 -15.6201 -15.6201 -15.6109
   -15.6109 -15.6091  -3.0761   2.0835   7.6997   7.6997   8.4749  10.9023
    10.9023  11.1274  15.3266  16.4377  16.4377  20.1056  20.2664  20.2664
    20.8549  23.9028  23.9028  24.5137  30.7940  30.7940

          k = 0.0000 0.0000 0.3530 (  3780 PWs)   bands (ev):

   -27.6781 -27.6781 -27.6648 -27.6648 -27.6609 -15.6202 -15.6202 -15.6108
   -15.6108 -15.6090  -3.0085   1.9160   7.7146   7.7146   8.5261  10.7883
    10.7883  11.0505  15.4524  16.6132  16.6132  20.2776  20.5824  20.5824
    21.2042  23.5419  23.5419  24.3237  30.3668  30.3668

          k = 0.0000 0.0000 0.3738 (  3771 PWs)   bands (ev):

   -27.6781 -27.6781 -27.6648 -27.6648 -27.6609 -15.6202 -15.6202 -15.6107
   -15.6107 -15.6090  -2.9395   1.7535   7.7302   7.7302   8.5729  10.6797
    10.6797  10.9754  15.5924  16.7983  16.7983  20.3980  20.8983  20.8983
    21.5691  23.1960  23.1960  24.1982  29.9303  29.9303

          k = 0.0000 0.0000 0.3946 (  3771 PWs)   bands (ev):

   -27.6781 -27.6781 -27.6647 -27.6647 -27.6608 -15.6203 -15.6203 -15.6106
   -15.6106 -15.6090  -2.8699   1.5971   7.7463   7.7463   8.6156  10.5772
    10.5772  10.9029  15.7449  16.9926  16.9926  20.4561  21.2036  21.2036
    21.9490  22.8750  22.8750  24.1475  29.4897  29.4897

          k = 0.0000 0.0000 0.4153 (  3789 PWs)   bands (ev):

   -27.6781 -27.6781 -27.6647 -27.6647 -27.6608 -15.6204 -15.6204 -15.6107
   -15.6107 -15.6091  -2.8005   1.4482   7.7626   7.7626   8.6543  10.4816
    10.4816  10.8339  15.9082  17.1958  17.1958  20.4478  21.4676  21.4676
    22.3428  22.6097  22.6097  24.1760  29.0479  29.0479

          k = 0.0000 0.0000 0.4361 (  3789 PWs)   bands (ev):

   -27.6781 -27.6781 -27.6647 -27.6647 -27.6608 -15.6205 -15.6205 -15.6107
   -15.6107 -15.6090  -2.7325   1.3080   7.7789   7.7789   8.6893  10.3935
    10.3935  10.7693  16.0803  17.4076  17.4076  20.3779  21.5945  21.5945
    22.4960  22.4960  22.7494  24.2794  28.6071  28.6071

          k = 0.0000 0.0000 0.4569 (  3801 PWs)   bands (ev):

   -27.6781 -27.6781 -27.6647 -27.6647 -27.6608 -15.6206 -15.6206 -15.6108
   -15.6108 -15.6090  -2.6669   1.1782   7.7948   7.7948   8.7204  10.3135
    10.3135  10.7099  16.2585  17.6275  17.6275  20.2584  21.4852  21.4852
    22.6326  22.6326  23.1672  24.4458  28.1682  28.1682

          k = 0.0000 0.0000 0.4776 (  3798 PWs)   bands (ev):

   -27.6781 -27.6781 -27.6646 -27.6646 -27.6608 -15.6206 -15.6206 -15.6107
   -15.6107 -15.6091  -2.6053   1.0604   7.8098   7.8098   8.7478  10.2425
    10.2425  10.6564  16.4396  17.8550  17.8550  20.1047  21.2418  21.2418
    22.9180  22.9180  23.5944  24.6604  27.7323  27.7323

          k = 0.0000 0.0000 0.4984 (  3795 PWs)   bands (ev):

   -27.6781 -27.6781 -27.6646 -27.6646 -27.6608 -15.6207 -15.6207 -15.6106
   -15.6106 -15.6090  -2.5490   0.9562   7.8236   7.8236   8.7714  10.1809
    10.1809  10.6097  16.6194  18.0892  18.0892  19.9324  20.9595  20.9595
    23.2573  23.2573  24.0286  24.9077  27.3001  27.3001

          k = 0.0000 0.0000 0.5192 (  3801 PWs)   bands (ev):

   -27.6782 -27.6782 -27.6646 -27.6646 -27.6607 -15.6207 -15.6207 -15.6107
   -15.6107 -15.6091  -2.4998   0.8676   7.8356   7.8356   8.7910  10.1296
    10.1296  10.5703  16.7918  18.3287  18.3287  19.7563  20.6695  20.6695
    23.6199  23.6199  24.4657  25.1728  26.8722  26.8722

          k = 0.0000 0.0000 0.5399 (  3804 PWs)   bands (ev):

   -27.6782 -27.6782 -27.6646 -27.6646 -27.6607 -15.6208 -15.6208 -15.6108
   -15.6108 -15.6088  -2.4592   0.7963   7.8456   7.8456   8.8065  10.0889
    10.0889  10.5389  16.9483  18.5704  18.5704  19.5916  20.3844  20.3844
    23.9956  23.9956  24.8968  25.4407  26.4497  26.4497

          k = 0.0000 0.0000 0.5607 (  3810 PWs)   bands (ev):

   -27.6782 -27.6782 -27.6646 -27.6646 -27.6607 -15.6208 -15.6208 -15.6108
   -15.6108 -15.6088  -2.4290   0.7439   7.8529   7.8529   8.8177  10.0595
    10.0595  10.5161  17.0772  18.8074  18.8074  19.4541  20.1149  20.1149
    24.3788  24.3788  25.2974  25.6987  26.0345  26.0345

          k = 0.0000 0.0000 0.5815 (  3810 PWs)   bands (ev):

   -27.6782 -27.6782 -27.6646 -27.6646 -27.6607 -15.6208 -15.6208 -15.6108
   -15.6108 -15.6088  -2.4102   0.7119   7.8575   7.8575   8.8246  10.0417
    10.0417  10.5022  17.1639  19.0166  19.0166  19.3613  19.8858  19.8858
    24.7603  24.7603  25.5977  25.6342  25.6342  25.9444

          k = 0.0000 0.0000 0.6023 (  3804 PWs)   bands (ev):

   -27.6782 -27.6782 -27.6646 -27.6646 -27.6607 -15.6208 -15.6208 -15.6108
   -15.6108 -15.6087  -2.4039   0.7011   7.8591   7.8591   8.8268  10.0357
    10.0357  10.4976  17.1947  19.1175  19.1175  19.3283  19.7783  19.7783
    25.0336  25.0336  25.3547  25.3547  25.7043  26.0875

          k = 0.0182 0.0105 0.6023 (  3804 PWs)   bands (ev):

   -27.6782 -27.6782 -27.6646 -27.6646 -27.6607 -15.6208 -15.6208 -15.6108
   -15.6108 -15.6087  -2.4018   0.7031   7.8019   7.8482   8.8527  10.0005
    10.0502  10.5721  17.1747  19.0852  19.0883  19.2661  19.8199  19.9008
    24.9169  24.9459  25.3211  25.4473  25.8468  26.0964

          k = 0.0365 0.0211 0.6023 (  3802 PWs)   bands (ev):

   -27.6782 -27.6781 -27.6646 -27.6646 -27.6607 -15.6208 -15.6208 -15.6108
   -15.6107 -15.6087  -2.3958   0.7091   7.6543   7.8164   8.8977   9.9550
    10.0926  10.7439  17.1167  18.9328  19.0061  19.2745  19.9273  20.1392
    24.6679  24.7864  25.2788  25.6213  26.0917  26.1463

          k = 0.0547 0.0316 0.6023 (  3796 PWs)   bands (ev):

   -27.6781 -27.6781 -27.6646 -27.6646 -27.6606 -15.6207 -15.6207 -15.6107
   -15.6107 -15.6087  -2.3857   0.7190   7.4556   7.7663   8.9060   9.9677
    10.1604  10.9608  17.0257  18.7265  18.9070  19.3576  20.0735  20.4081
    24.3853  24.6159  25.2324  25.8160  26.1500  26.4225

          k = 0.0729 0.0421 0.6023 (  3796 PWs)   bands (ev):

   -27.6782 -27.6781 -27.6646 -27.6646 -27.6606 -15.6208 -15.6206 -15.6108
   -15.6107 -15.6086  -2.3717   0.7327   7.2310   7.7012   8.8544  10.0556
    10.2500  11.2032  16.9076  18.5225  18.8036  19.4745  20.2430  20.6874
    24.0992  24.4448  25.1792  26.0206  26.1991  26.7183

          k = 0.0912 0.0526 0.6023 (  3790 PWs)   bands (ev):

   -27.6782 -27.6780 -27.6646 -27.6646 -27.6606 -15.6208 -15.6204 -15.6108
   -15.6107 -15.6086  -2.3538   0.7501   6.9940   7.6246   8.7561  10.1992
    10.3576  11.4630  16.7682  18.3327  18.7033  19.6133  20.4287  20.9689
    23.8206  24.2760  25.1217  26.2325  26.2571  26.9859

          k = 0.1094 0.0632 0.6023 (  3786 PWs)   bands (ev):

   -27.6781 -27.6779 -27.6646 -27.6646 -27.6606 -15.6208 -15.6203 -15.6108
   -15.6107 -15.6085  -2.3323   0.7709   6.7521   7.5399   8.6323  10.3734
    10.4796  11.7358  16.6124  18.1617  18.6099  19.7668  20.6269  21.2459
    23.5568  24.1103  25.0633  26.3240  26.4505  27.1618

          k = 0.1276 0.0737 0.6023 (  3779 PWs)   bands (ev):

   -27.6781 -27.6779 -27.6647 -27.6646 -27.6605 -15.6207 -15.6202 -15.6108
   -15.6107 -15.6084  -2.3072   0.7949   6.5099   7.4499   8.4970  10.5617
    10.6129  12.0181  16.4443  18.0115  18.5256  19.9290  20.8358  21.5106
    23.3162  23.9477  25.0080  26.3995  26.6743  27.2648

          k = 0.1459 0.0842 0.6023 (  3773 PWs)   bands (ev):

   -27.6781 -27.6778 -27.6647 -27.6646 -27.6605 -15.6208 -15.6200 -15.6109
   -15.6106 -15.6083  -2.2788   0.8218   6.2707   7.3569   8.3576  10.7547
    10.7548  12.3067  16.2678  17.8831  18.4519  20.0940  21.0541  21.7508
    23.1113  23.7885  24.9601  26.4832  26.9036  27.3580

          k = 0.1641 0.0947 0.6023 (  3777 PWs)   bands (ev):

   -27.6781 -27.6777 -27.6647 -27.6646 -27.6605 -15.6208 -15.6199 -15.6110
   -15.6107 -15.6083  -2.2473   0.8511   6.0368   7.2626   8.2182  10.9026
    10.9470  12.5987  16.0866  17.7766  18.3899  20.2548  21.2811  21.9461
    22.9642  23.6324  24.9242  26.5749  27.1384  27.4576

          k = 0.1823 0.1053 0.6023 (  3784 PWs)   bands (ev):

   -27.6781 -27.6776 -27.6648 -27.6646 -27.6604 -15.6210 -15.6197 -15.6113
   -15.6107 -15.6082  -2.2131   0.8824   5.8104   7.1686   8.0810  11.0547
    11.1347  12.8914  15.9039  17.6919  18.3408  20.4019  21.5160  22.0693
    22.9054  23.4793  24.9059  26.6734  27.3783  27.5671

          k = 0.2006 0.1158 0.6023 (  3782 PWs)   bands (ev):

   -27.6781 -27.6775 -27.6649 -27.6646 -27.6604 -15.6210 -15.6195 -15.6115
   -15.6107 -15.6081  -2.1765   0.9152   5.5933   7.0759   7.9471  11.2092
    11.3149  13.1816  15.7230  17.6284  18.3053  20.5229  21.7580  22.1196
    22.9423  23.3292  24.9112  26.7758  27.6235  27.6846

          k = 0.2188 0.1263 0.6023 (  3780 PWs)   bands (ev):

   -27.6781 -27.6774 -27.6649 -27.6646 -27.6603 -15.6211 -15.6193 -15.6116
   -15.6107 -15.6080  -2.1379   0.9487   5.3874   6.9854   7.8172  11.3645
    11.4851  13.4665  15.5465  17.5855  18.2843  20.6046  22.0060  22.1483
    23.0312  23.1826  24.9459  26.8741  27.7878  27.8732

          k = 0.2370 0.1369 0.6023 (  3784 PWs)   bands (ev):

   -27.6781 -27.6773 -27.6650 -27.6646 -27.6603 -15.6212 -15.6191 -15.6118
   -15.6107 -15.6080  -2.0977   0.9825   5.1942   6.8978   7.6918  11.5192
    11.6428  13.7428  15.3771  17.5621  18.2787  20.6393  22.2087  22.2565
    23.0418  23.1232  25.0133  26.9435  27.7376  28.0293

          k = 0.2553 0.1474 0.6023 (  3786 PWs)   bands (ev):

   -27.6781 -27.6772 -27.6651 -27.6646 -27.6602 -15.6212 -15.6189 -15.6120
   -15.6108 -15.6079  -2.0567   1.0156   5.0155   6.8138   7.5712  11.6720
    11.7855  14.0072  15.2175  17.5566  18.2892  20.6338  22.3208  22.4947
    22.9210  23.1937  25.1126  26.9122  27.6046  27.6106

          k = 0.2735 0.1579 0.6023 (  3786 PWs)   bands (ev):

   -27.6781 -27.6770 -27.6652 -27.6647 -27.6602 -15.6213 -15.6188 -15.6121
   -15.6108 -15.6078  -2.0154   1.0473   4.8531   6.7337   7.4555  11.8217
    11.9109  14.2557  15.0705  17.5667  18.3166  20.6065  22.4804  22.6137
    22.9258  23.2360  25.2373  26.7092  27.1939  27.6033

          k = 0.2917 0.1684 0.6023 (  3774 PWs)   bands (ev):

   -27.6781 -27.6769 -27.6652 -27.6647 -27.6601 -15.6213 -15.6185 -15.6121
   -15.6108 -15.6077  -1.9745   1.0770   4.7087   6.6580   7.3448  11.9671
    12.0168  14.4813  14.9415  17.5897  18.3616  20.5784  22.5247  22.6742
    23.1441  23.2534  25.3759  26.4028  26.7862  27.6969

          k = 0.3100 0.1790 0.6023 (  3782 PWs)   bands (ev):

   -27.6781 -27.6768 -27.6653 -27.6647 -27.6601 -15.6214 -15.6183 -15.6123
   -15.6109 -15.6077  -1.9350   1.1039   4.5838   6.5868   7.2392  12.1017
    12.1074  14.6540  14.8582  17.6230  18.4245  20.5669  22.3853  22.8851
    23.2567  23.4166  25.5066  26.0759  26.3881  27.8091

          k = 0.3282 0.1895 0.6023 (  3778 PWs)   bands (ev):

   -27.6781 -27.6767 -27.6653 -27.6647 -27.6600 -15.6215 -15.6181 -15.6124
   -15.6109 -15.6076  -1.8978   1.1276   4.4799   6.5205   7.1387  12.1646
    12.2418  14.6538  14.9376  17.6651  18.5061  20.5841  22.2336  23.0670
    23.2883  23.7040  25.5276  25.8496  26.0003  27.8365

          k = 0.3464 0.2000 0.6023 (  3780 PWs)   bands (ev):

   -27.6781 -27.6766 -27.6654 -27.6647 -27.6600 -15.6216 -15.6179 -15.6126
   -15.6108 -15.6075  -1.8639   1.1481   4.3983   6.4593   7.0434  12.2058
    12.3695  14.5769  15.0787  17.7164  18.6062  20.6360  22.0744  23.1089
    23.4553  23.9994  25.2769  25.6233  25.8892  27.6644

          k = 0.3647 0.2105 0.6023 (  3772 PWs)   bands (ev):

   -27.6781 -27.6765 -27.6655 -27.6647 -27.6600 -15.6216 -15.6177 -15.6127
   -15.6108 -15.6073  -1.8345   1.1656   4.3397   6.4034   6.9533  12.2262
    12.4902  14.5031  15.1961  17.7807  18.7250  20.7230  21.9084  23.0730
    23.6877  24.2990  24.9733  25.2585  25.9741  27.3495

          k = 0.3829 0.2211 0.6023 (  3776 PWs)   bands (ev):

   -27.6781 -27.6764 -27.6655 -27.6647 -27.6599 -15.6217 -15.6175 -15.6128
   -15.6108 -15.6073  -1.8107   1.1809   4.3043   6.3527   6.8684  12.2281
    12.6034  14.4403  15.2757  17.8633  18.8619  20.8389  21.7355  23.0155
    23.9014  24.5869  24.7168  24.9191  26.0102  27.0199

          k = 0.4011 0.2316 0.6023 (  3782 PWs)   bands (ev):

   -27.6781 -27.6763 -27.6656 -27.6648 -27.6599 -15.6218 -15.6174 -15.6130
   -15.6108 -15.6073  -1.7937   1.1952   4.2921   6.3076   6.7889  12.2142
    12.7091  14.3887  15.3122  17.9697  19.0162  20.9709  21.5556  22.9489
    23.9873  24.5198  24.6210  24.9442  25.9611  26.7170

     Writing all to output data dir ./temp/GeTe.save/
 
     init_run     :      0.19s CPU      0.50s WALL (       1 calls)
     electrons    :      6.45s CPU      6.62s WALL (       1 calls)

     Called by init_run:
     wfcinit      :      0.00s CPU      0.00s WALL (       1 calls)
     wfcinit:atom :      0.00s CPU      0.00s WALL (      11 calls)
     wfcinit:wfcr :      0.18s CPU      0.18s WALL (      11 calls)
     potinit      :      0.02s CPU      0.02s WALL (       1 calls)
     hinit0       :      0.09s CPU      0.38s WALL (       1 calls)

     Called by electrons:
     c_bands      :      6.43s CPU      6.59s WALL (       1 calls)
     v_of_rho     :      0.02s CPU      0.02s WALL (       1 calls)
     v_h          :      0.00s CPU      0.00s WALL (       1 calls)
     v_xc         :      0.02s CPU      0.02s WALL (       1 calls)

     Called by c_bands:
     init_us_2    :      0.00s CPU      0.00s WALL (      11 calls)
     init_us_2:cp :      0.00s CPU      0.00s WALL (      11 calls)
     cegterg      :      5.29s CPU      5.42s WALL (      34 calls)

     Called by sum_band:

     Called by *egterg:
     cdiaghg      :      0.60s CPU      0.60s WALL (     542 calls)
     cegterg:over :      0.25s CPU      0.26s WALL (     531 calls)
     cegterg:upda :      0.15s CPU      0.16s WALL (     531 calls)
     cegterg:last :      0.27s CPU      0.27s WALL (     272 calls)
     h_psi        :      4.05s CPU      4.18s WALL (     576 calls)
     g_psi        :      0.06s CPU      0.06s WALL (     531 calls)

     Called by h_psi:
     h_psi:calbec :      0.11s CPU      0.11s WALL (     576 calls)
     vloc_psi     :      3.83s CPU      3.94s WALL (     576 calls)
     add_vuspsi   :      0.09s CPU      0.10s WALL (     576 calls)

     General routines
     calbec       :      0.11s CPU      0.11s WALL (     576 calls)
     fft          :      0.01s CPU      0.29s WALL (      11 calls)
     fftw         :      3.33s CPU      3.43s WALL (   16238 calls)
 
     Parallel routines
 
     PWSCF        :      6.94s CPU      7.54s WALL

 
   This run was terminated on:   1:23:56  11May2022            

=------------------------------------------------------------------------------=
   JOB DONE.
=------------------------------------------------------------------------------=
