
     Program PWSCF v.6.7MaX starts on 11May2022 at  1:21: 6 

     This program is part of the open-source Quantum ESPRESSO suite
     for quantum simulation of materials; please cite
         "P. Giannozzi et al., J. Phys.:Condens. Matter 21 395502 (2009);
         "P. Giannozzi et al., J. Phys.:Condens. Matter 29 465901 (2017);
          URL http://www.quantum-espresso.org", 
     in publications or presentations arising from this work. More details at
     http://www.quantum-espresso.org/quote

     Parallel version (MPI), running on    60 processors

     MPI processes distributed on     3 nodes
     K-points division:     npool     =      20
     R & G space division:  proc/nbgrp/npool/nimage =       3
     Reading input from nscf.in

     Current dimensions of program PWSCF are:
     Max number of different atomic species (ntypx) = 10
     Max number of k-points (npk) =  40000
     Max angular momentum in pseudopotentials (lmaxx) =  3

     Atomic positions and unit cell read from directory:
     ./temp/GeTe.save/
     Atomic positions from file used, from input discarded
 
     Message from routine readpp:
     file ./temp/GeTe.save/Ge.dojo.sr.ONCVv0.4.pbe.standard.upf not found
     Message from routine read_pp_mesh:
     mesh size missing, using the one in header
     Message from routine readpp:
     file ./temp/GeTe.save/Te.dojo.sr.ONCVv0.4.pbe.standard.upf not found
     Message from routine read_pp_mesh:
     mesh size missing, using the one in header

     Subspace diagonalization in iterative solution of the eigenvalue problem:
     a serial algorithm will be used

 
     Parallelization info
     --------------------
     sticks:   dense  smooth     PW     G-vecs:    dense   smooth      PW
     Min         431     431    125                10042    10042    1611
     Max         432     432    125                10043    10043    1613
     Sum        1295    1295    375                30127    30127    4837
 


     bravais-lattice index     =            5
     lattice parameter (alat)  =       8.2860  a.u.
     unit-cell volume          =     381.3054 (a.u.)^3
     number of atoms/cell      =            2
     number of atomic types    =            2
     number of electrons       =        30.00
     number of Kohn-Sham states=           25
     kinetic-energy cutoff     =      70.0000  Ry
     charge density cutoff     =     280.0000  Ry
     Exchange-correlation= PBE
                           (   1   4   3   4   0   0   0)

     celldm(1)=   8.286001  celldm(2)=   0.000000  celldm(3)=   0.000000
     celldm(4)=   0.533894  celldm(5)=   0.000000  celldm(6)=   0.000000

     crystal axes: (cart. coord. in units of alat)
               a(1) = (   0.482756  -0.278719   0.830218 )  
               a(2) = (   0.000000   0.557438   0.830218 )  
               a(3) = (  -0.482756  -0.278719   0.830218 )  

     reciprocal axes: (cart. coord. in units 2 pi/alat)
               b(1) = (  1.035720 -0.597973  0.401501 )  
               b(2) = (  0.000000  1.195947  0.401501 )  
               b(3) = ( -1.035720 -0.597973  0.401501 )  


     PseudoPot. # 1 for Ge read from file:
     /home/jmlim/PP/all/Ge.dojo.sr.ONCVv0.4.pbe.standard.upf
     MD5 check sum: 087fa14d6c89b52166990835c3b338da
     Pseudo is Norm-conserving + core correction, Zval = 14.0
     Generated using ONCVPSP code by D. R. Hamann
     Using radial grid of 1560 points,  6 beta functions with: 
                l(1) =   0
                l(2) =   0
                l(3) =   1
                l(4) =   1
                l(5) =   2
                l(6) =   2

     PseudoPot. # 2 for Te read from file:
     /home/jmlim/PP/all/Te.dojo.sr.ONCVv0.4.pbe.standard.upf
     MD5 check sum: 3368f43c0236043475348b0373f3ab9d
     Pseudo is Norm-conserving + core correction, Zval = 16.0
     Generated using ONCVPSP code by D. R. Hamann
     Using radial grid of 1294 points,  6 beta functions with: 
                l(1) =   0
                l(2) =   0
                l(3) =   1
                l(4) =   1
                l(5) =   2
                l(6) =   2

     atomic species   valence    mass     pseudopotential
        Ge            14.00    72.61000     Ge( 1.00)
        Te            16.00   127.60000     Te( 1.00)

      6 Sym. Ops. (no inversion) found



   Cartesian axes

     site n.     atom                  positions (alat units)
         1           Ge  tau(   1) = (   0.0000000   0.0000000   0.0000000  )
         2           Te  tau(   2) = (   0.0000000  -0.0000000   1.1676843  )

     number of k points=    27
                       cart. coord. in units 2pi/alat
        k(    1) = (   0.0000000   0.0000000   0.0000000), wk =   0.0740741
        k(    2) = (  -0.3452401  -0.1993245   0.1338336), wk =   0.0740741
        k(    3) = (  -0.6904802  -0.3986489   0.2676672), wk =   0.0740741
        k(    4) = (   0.0000000   0.3986489   0.1338336), wk =   0.0740741
        k(    5) = (  -0.3452401   0.1993245   0.2676672), wk =   0.0740741
        k(    6) = (  -0.6904802  -0.0000000   0.4015008), wk =   0.0740741
        k(    7) = (   0.0000000   0.7972978   0.2676672), wk =   0.0740741
        k(    8) = (  -0.3452401   0.5979734   0.4015008), wk =   0.0740741
        k(    9) = (  -0.6904802   0.3986489   0.5353344), wk =   0.0740741
        k(   10) = (   0.3452401  -0.1993245   0.1338336), wk =   0.0740741
        k(   11) = (   0.0000000  -0.3986489   0.2676672), wk =   0.0740741
        k(   12) = (  -0.3452401  -0.5979734   0.4015008), wk =   0.0740741
        k(   13) = (   0.3452401   0.1993245   0.2676672), wk =   0.0740741
        k(   14) = (   0.0000000   0.0000000   0.4015008), wk =   0.0740741
        k(   15) = (  -0.3452401  -0.1993245   0.5353344), wk =   0.0740741
        k(   16) = (   0.3452401   0.5979734   0.4015008), wk =   0.0740741
        k(   17) = (   0.0000000   0.3986489   0.5353344), wk =   0.0740741
        k(   18) = (  -0.3452401   0.1993245   0.6691680), wk =   0.0740741
        k(   19) = (   0.6904802  -0.3986489   0.2676672), wk =   0.0740741
        k(   20) = (   0.3452401  -0.5979734   0.4015008), wk =   0.0740741
        k(   21) = (   0.0000000  -0.7972978   0.5353344), wk =   0.0740741
        k(   22) = (   0.6904802  -0.0000000   0.4015008), wk =   0.0740741
        k(   23) = (   0.3452401  -0.1993245   0.5353344), wk =   0.0740741
        k(   24) = (   0.0000000  -0.3986489   0.6691680), wk =   0.0740741
        k(   25) = (   0.6904802   0.3986489   0.5353344), wk =   0.0740741
        k(   26) = (   0.3452401   0.1993245   0.6691680), wk =   0.0740741
        k(   27) = (   0.0000000   0.0000000   0.8030017), wk =   0.0740741

     Dense  grid:    30127 G-vectors     FFT dimensions: (  45,  45,  45)

     Estimated max dynamical RAM per process >       9.63 MB

     Estimated total dynamical RAM >     578.05 MB

     The potential is recalculated from file :
     ./temp/GeTe.save/charge-density

     Starting wfcs are   18 randomized atomic wfcs +    7 random wfcs

     Band Structure Calculation
     Davidson diagonalization with overlap

     ethr =  3.33E-13,  avg # of iterations = 56.6

     total cpu time spent up to now is        2.0 secs

     End of band structure calculation

          k = 0.0000 0.0000 0.0000 (  3793 PWs)   bands (ev):

   -27.6781 -27.6781 -27.6654 -27.6654 -27.6612 -15.6199 -15.6199 -15.6114
   -15.6114 -15.6091  -3.6672   4.1944   7.4759   7.5951   7.5951  11.9377
    12.4768  12.4768  15.1110  15.1110  15.2639  16.9918  16.9918  17.3042
    17.4125

          k =-0.3452-0.1993 0.1338 (  3765 PWs)   bands (ev):

   -27.6780 -27.6766 -27.6656 -27.6654 -27.6603 -15.6206 -15.6179 -15.6122
   -15.6122 -15.6078  -2.6584   1.4483   7.4555   7.4606   8.6200  10.2837
    10.6171  10.7290  15.8191  16.6438  17.1594  20.4923  21.7953  21.8833
    22.6346

          k =-0.6905-0.3986 0.2677 (  3765 PWs)   bands (ev):

   -27.6780 -27.6766 -27.6656 -27.6654 -27.6603 -15.6206 -15.6179 -15.6122
   -15.6122 -15.6078  -2.6584   1.4483   7.4555   7.4606   8.6200  10.2837
    10.6171  10.7290  15.8191  16.6438  17.1594  20.4923  21.7953  21.8833
    22.6346

          k = 0.0000 0.3986 0.1338 (  3765 PWs)   bands (ev):

   -27.6780 -27.6766 -27.6656 -27.6654 -27.6603 -15.6206 -15.6179 -15.6122
   -15.6122 -15.6078  -2.6584   1.4483   7.4555   7.4606   8.6200  10.2837
    10.6171  10.7290  15.8191  16.6438  17.1594  20.4923  21.7953  21.8833
    22.6346

          k =-0.3452 0.1993 0.2677 (  3756 PWs)   bands (ev):

   -27.6781 -27.6766 -27.6658 -27.6648 -27.6601 -15.6213 -15.6173 -15.6131
   -15.6106 -15.6074  -2.4466   2.0891   5.4558   6.2200   6.4652  11.8004
    13.3985  13.8099  14.4797  18.0478  18.5712  19.5240  20.0330  22.7074
    23.0973

          k =-0.6905-0.0000 0.4015 (  3756 PWs)   bands (ev):

   -27.6770 -27.6768 -27.6658 -27.6651 -27.6598 -15.6202 -15.6180 -15.6128
   -15.6117 -15.6070  -1.7164   0.8655   4.5719   6.5921   7.1261  11.7253
    12.0681  14.7781  15.2013  16.7437  18.1810  20.4020  23.4998  23.6408
    23.8972

          k = 0.0000 0.7973 0.2677 (  3765 PWs)   bands (ev):

   -27.6780 -27.6766 -27.6656 -27.6654 -27.6603 -15.6206 -15.6179 -15.6122
   -15.6122 -15.6078  -2.6584   1.4483   7.4555   7.4606   8.6200  10.2837
    10.6171  10.7290  15.8191  16.6438  17.1594  20.4923  21.7953  21.8833
    22.6346

          k =-0.3452 0.5980 0.4015 (  3756 PWs)   bands (ev):

   -27.6770 -27.6768 -27.6658 -27.6651 -27.6598 -15.6202 -15.6180 -15.6128
   -15.6117 -15.6070  -1.7164   0.8655   4.5719   6.5921   7.1261  11.7253
    12.0681  14.7781  15.2013  16.7437  18.1810  20.4020  23.4998  23.6408
    23.8972

          k =-0.6905 0.3986 0.5353 (  3756 PWs)   bands (ev):

   -27.6781 -27.6766 -27.6658 -27.6648 -27.6601 -15.6213 -15.6173 -15.6131
   -15.6106 -15.6074  -2.4466   2.0891   5.4558   6.2200   6.4652  11.8004
    13.3985  13.8099  14.4797  18.0478  18.5712  19.5240  20.0330  22.7074
    23.0973

          k = 0.3452-0.1993 0.1338 (  3765 PWs)   bands (ev):

   -27.6780 -27.6766 -27.6656 -27.6654 -27.6603 -15.6206 -15.6179 -15.6122
   -15.6122 -15.6078  -2.6584   1.4483   7.4555   7.4606   8.6200  10.2837
    10.6171  10.7290  15.8191  16.6438  17.1594  20.4923  21.7953  21.8833
    22.6346

          k = 0.0000-0.3986 0.2677 (  3756 PWs)   bands (ev):

   -27.6781 -27.6766 -27.6658 -27.6648 -27.6601 -15.6213 -15.6173 -15.6131
   -15.6106 -15.6074  -2.4466   2.0891   5.4558   6.2200   6.4652  11.8004
    13.3985  13.8099  14.4797  18.0478  18.5712  19.5240  20.0330  22.7074
    23.0973

          k =-0.3452-0.5980 0.4015 (  3756 PWs)   bands (ev):

   -27.6770 -27.6768 -27.6658 -27.6651 -27.6598 -15.6202 -15.6180 -15.6128
   -15.6117 -15.6070  -1.7164   0.8655   4.5719   6.5921   7.1261  11.7253
    12.0681  14.7781  15.2013  16.7437  18.1810  20.4020  23.4998  23.6408
    23.8972

          k = 0.3452 0.1993 0.2677 (  3756 PWs)   bands (ev):

   -27.6781 -27.6766 -27.6658 -27.6648 -27.6601 -15.6213 -15.6173 -15.6131
   -15.6106 -15.6074  -2.4466   2.0891   5.4558   6.2200   6.4652  11.8004
    13.3985  13.8099  14.4797  18.0478  18.5712  19.5240  20.0330  22.7074
    23.0973

          k = 0.0000 0.0000 0.4015 (  3777 PWs)   bands (ev):

   -27.6781 -27.6781 -27.6647 -27.6647 -27.6608 -15.6203 -15.6203 -15.6107
   -15.6107 -15.6089  -2.8467   1.5466   7.7517   7.7517   8.6290  10.5446
    10.5446  10.8795  15.7982  17.0594  17.0594  20.4607  21.2990  21.2990
    22.0788

          k =-0.3452-0.1993 0.5353 (  3779 PWs)   bands (ev):

   -27.6781 -27.6766 -27.6653 -27.6649 -27.6600 -15.6214 -15.6180 -15.6123
   -15.6112 -15.6076  -1.8938   1.0340   4.5457   6.6725   7.3594  11.8668
    11.9285  14.8165  15.1533  17.0703  18.0616  20.2216  23.1268  23.1773
    24.2647

          k = 0.3452 0.5980 0.4015 (  3756 PWs)   bands (ev):

   -27.6770 -27.6768 -27.6658 -27.6651 -27.6598 -15.6202 -15.6180 -15.6128
   -15.6117 -15.6070  -1.7164   0.8655   4.5719   6.5921   7.1261  11.7253
    12.0681  14.7781  15.2013  16.7437  18.1810  20.4020  23.4998  23.6408
    23.8972

          k = 0.0000 0.3986 0.5353 (  3779 PWs)   bands (ev):

   -27.6781 -27.6766 -27.6653 -27.6649 -27.6600 -15.6214 -15.6180 -15.6123
   -15.6112 -15.6076  -1.8938   1.0340   4.5457   6.6725   7.3594  11.8668
    11.9285  14.8165  15.1533  17.0703  18.0616  20.2216  23.1268  23.1773
    24.2647

          k =-0.3452 0.1993 0.6692 (  3779 PWs)   bands (ev):

   -27.6781 -27.6766 -27.6653 -27.6649 -27.6600 -15.6214 -15.6180 -15.6123
   -15.6112 -15.6076  -1.8938   1.0340   4.5457   6.6725   7.3594  11.8668
    11.9285  14.8165  15.1533  17.0703  18.0616  20.2216  23.1268  23.1773
    24.2647

          k = 0.6905-0.3986 0.2677 (  3765 PWs)   bands (ev):

   -27.6780 -27.6766 -27.6656 -27.6654 -27.6603 -15.6206 -15.6179 -15.6122
   -15.6122 -15.6078  -2.6584   1.4483   7.4555   7.4606   8.6200  10.2837
    10.6171  10.7290  15.8191  16.6438  17.1594  20.4923  21.7953  21.8833
    22.6346

          k = 0.3452-0.5980 0.4015 (  3756 PWs)   bands (ev):

   -27.6770 -27.6768 -27.6658 -27.6651 -27.6598 -15.6202 -15.6180 -15.6128
   -15.6117 -15.6070  -1.7164   0.8655   4.5719   6.5921   7.1261  11.7253
    12.0681  14.7781  15.2013  16.7437  18.1810  20.4020  23.4998  23.6408
    23.8972

          k = 0.0000-0.7973 0.5353 (  3756 PWs)   bands (ev):

   -27.6781 -27.6766 -27.6658 -27.6648 -27.6601 -15.6213 -15.6173 -15.6131
   -15.6106 -15.6074  -2.4466   2.0891   5.4558   6.2200   6.4652  11.8004
    13.3985  13.8099  14.4797  18.0478  18.5712  19.5240  20.0330  22.7074
    23.0973

          k = 0.6905-0.0000 0.4015 (  3756 PWs)   bands (ev):

   -27.6770 -27.6768 -27.6658 -27.6651 -27.6598 -15.6202 -15.6180 -15.6128
   -15.6117 -15.6070  -1.7164   0.8655   4.5719   6.5921   7.1261  11.7253
    12.0681  14.7781  15.2013  16.7437  18.1810  20.4020  23.4998  23.6408
    23.8972

          k = 0.3452-0.1993 0.5353 (  3779 PWs)   bands (ev):

   -27.6781 -27.6766 -27.6653 -27.6649 -27.6600 -15.6214 -15.6180 -15.6123
   -15.6112 -15.6076  -1.8938   1.0340   4.5457   6.6725   7.3594  11.8668
    11.9285  14.8165  15.1533  17.0703  18.0616  20.2216  23.1268  23.1773
    24.2647

          k = 0.0000-0.3986 0.6692 (  3779 PWs)   bands (ev):

   -27.6781 -27.6766 -27.6653 -27.6649 -27.6600 -15.6214 -15.6180 -15.6123
   -15.6112 -15.6076  -1.8938   1.0340   4.5457   6.6725   7.3594  11.8668
    11.9285  14.8165  15.1533  17.0703  18.0616  20.2216  23.1268  23.1773
    24.2647

          k = 0.6905 0.3986 0.5353 (  3756 PWs)   bands (ev):

   -27.6781 -27.6766 -27.6658 -27.6648 -27.6601 -15.6213 -15.6173 -15.6131
   -15.6106 -15.6074  -2.4466   2.0891   5.4558   6.2200   6.4652  11.8004
    13.3985  13.8099  14.4797  18.0478  18.5712  19.5240  20.0330  22.7074
    23.0973

          k = 0.3452 0.1993 0.6692 (  3779 PWs)   bands (ev):

   -27.6781 -27.6766 -27.6653 -27.6649 -27.6600 -15.6214 -15.6180 -15.6123
   -15.6112 -15.6076  -1.8938   1.0340   4.5457   6.6725   7.3594  11.8668
    11.9285  14.8165  15.1533  17.0703  18.0616  20.2216  23.1268  23.1773
    24.2647

          k = 0.0000 0.0000 0.8030 (  3777 PWs)   bands (ev):

   -27.6781 -27.6781 -27.6647 -27.6647 -27.6608 -15.6203 -15.6203 -15.6107
   -15.6107 -15.6089  -2.8467   1.5466   7.7517   7.7517   8.6290  10.5446
    10.5446  10.8795  15.7982  17.0594  17.0594  20.4607  21.2990  21.2990
    22.0788

     Writing output data file ./temp/GeTe.save/
 
     init_run     :      0.25s CPU      0.27s WALL (       1 calls)
     electrons    :      1.30s CPU      1.36s WALL (       1 calls)

     Called by init_run:
     wfcinit      :      0.00s CPU      0.00s WALL (       1 calls)
     potinit      :      0.08s CPU      0.09s WALL (       1 calls)
     hinit0       :      0.08s CPU      0.09s WALL (       1 calls)

     Called by electrons:
     c_bands      :      1.28s CPU      1.32s WALL (       1 calls)
     v_of_rho     :      0.01s CPU      0.02s WALL (       1 calls)

     Called by c_bands:
     init_us_2    :      0.00s CPU      0.00s WALL (       2 calls)
     cegterg      :      0.92s CPU      0.94s WALL (       5 calls)

     Called by *egterg:
     cdiaghg      :      0.06s CPU      0.06s WALL (      76 calls)
     h_psi        :      0.77s CPU      0.79s WALL (      81 calls)
     g_psi        :      0.01s CPU      0.01s WALL (      74 calls)

     Called by h_psi:
     h_psi:calbec :      0.02s CPU      0.02s WALL (      81 calls)
     vloc_psi     :      0.73s CPU      0.75s WALL (      81 calls)
     add_vuspsi   :      0.02s CPU      0.02s WALL (      81 calls)

     General routines
     calbec       :      0.02s CPU      0.02s WALL (      81 calls)
     fft          :      0.01s CPU      0.02s WALL (      11 calls)
     fftw         :      0.65s CPU      0.67s WALL (    2176 calls)
     davcio       :      0.00s CPU      0.01s WALL (       4 calls)
 
     Parallel routines
     fft_scatt_xy :      0.11s CPU      0.12s WALL (    2187 calls)
     fft_scatt_yz :      0.11s CPU      0.12s WALL (    2187 calls)
 
     PWSCF        :      2.00s CPU      2.25s WALL

 
   This run was terminated on:   1:21: 8  11May2022            

=------------------------------------------------------------------------------=
   JOB DONE.
=------------------------------------------------------------------------------=
