
     Program PWSCF v.7.3.1 starts on 21Jun2025 at 18: 2:48 

     This program is part of the open-source Quantum ESPRESSO suite
     for quantum simulation of materials; please cite
         "P. Giannozzi et al., J. Phys.:Condens. Matter 21 395502 (2009);
         "P. Giannozzi et al., J. Phys.:Condens. Matter 29 465901 (2017);
         "P. Giannozzi et al., J. Chem. Phys. 152 154105 (2020);
          URL http://www.quantum-espresso.org", 
     in publications or presentations arising from this work. More details at
     http://www.quantum-espresso.org/quote

     Parallel version (MPI), running on     1 processors

     MPI processes distributed on     1 nodes
     3077 MiB available memory on the printing compute node when the environment starts

     Waiting for input...
     Reading input from standard input
     Message from routine read_cards :
     DEPRECATED: no units specified in ATOMIC_POSITIONS card
     Message from routine read_cards :
     ATOMIC_POSITIONS: units set to alat

     Current dimensions of program PWSCF are:
     Max number of different atomic species (ntypx) = 10
     Max number of k-points (npk) =  40000
     Max angular momentum in pseudopotentials (lmaxx) =  4
     WARNING: atomic wfc #  5 for atom typeFe has zero norm

     Atomic positions and unit cell read from directory:
     ./Fe.save/


     Fixed quantization axis for GGA:    -0.000000   -0.000000   -1.000000

     Subspace diagonalization in iterative solution of the eigenvalue problem:
     a serial algorithm will be used


     G-vector sticks info
     --------------------
     sticks:   dense  smooth     PW     G-vecs:    dense   smooth      PW
     Sum         797     797    241                14171    14171    2347

     Using Slab Decomposition



     bravais-lattice index     =            3
     lattice parameter (alat)  =       5.4235  a.u.
     unit-cell volume          =      79.7644 (a.u.)^3
     number of atoms/cell      =            1
     number of atomic types    =            1
     number of electrons       =         8.00
     number of Kohn-Sham states=           32
     kinetic-energy cutoff     =     120.0000  Ry
     charge density cutoff     =     480.0000  Ry
     Exchange-correlation=  SLA  PW   PBX  PBC
                           (   1   4   3   4   0   0   0)
     Noncollinear calculation with spin-orbit


     celldm(1)=   5.423500  celldm(2)=   0.000000  celldm(3)=   0.000000
     celldm(4)=   0.000000  celldm(5)=   0.000000  celldm(6)=   0.000000

     crystal axes: (cart. coord. in units of alat)
               a(1) = (   0.500000   0.500000   0.500000 )  
               a(2) = (  -0.500000   0.500000   0.500000 )  
               a(3) = (  -0.500000  -0.500000   0.500000 )  

     reciprocal axes: (cart. coord. in units 2 pi/alat)
               b(1) = (  1.000000  0.000000  1.000000 )  
               b(2) = ( -1.000000  1.000000  0.000000 )  
               b(3) = (  0.000000 -1.000000  1.000000 )  


     PseudoPot. # 1 for Fe read from file:
     ./Fe.jry.pbe.UPF
     MD5 check sum: 78c02686e98e189cfdefd3b0caba24c3
     Pseudo is Norm-conserving + core correction, Zval =  8.0
     Generated by new atomic code, or converted to UPF format
     Using radial grid of 1165 points,  4 beta functions with: 
                l(1) =   2
                l(2) =   2
                l(3) =   1
                l(4) =   1

     atomic species   valence    mass     pseudopotential
     Fe                8.00    55.85000     Fe( 1.00)

     16 Sym. Ops., with inversion, found



   Cartesian axes

     site n.     atom                  positions (alat units)
         1        Fe     tau(   1) = (   0.0000000   0.0000000   0.0000000  )

     number of k points=    13  Marzari-Vanderbilt smearing, width (Ry)=  0.0200
                       cart. coord. in units 2pi/alat
        k(    1) = (   0.0000000   0.0000000   0.0000000), wk =   0.0156250
        k(    2) = (   0.0000000  -0.2500000   0.2500000), wk =   0.1250000
        k(    3) = (   0.0000000   0.5000000  -0.5000000), wk =   0.0625000
        k(    4) = (  -0.2500000   0.7500000  -0.5000000), wk =   0.1250000
        k(    5) = (   0.0000000   0.0000000   0.5000000), wk =   0.0312500
        k(    6) = (   0.0000000   0.7500000  -0.2500000), wk =   0.1250000
        k(    7) = (   0.5000000  -0.5000000   0.5000000), wk =   0.0312500
        k(    8) = (   0.0000000   0.0000000  -1.0000000), wk =   0.0156250
        k(    9) = (  -0.2500000   0.2500000   0.0000000), wk =   0.0625000
        k(   10) = (   0.5000000  -0.5000000   0.0000000), wk =   0.0312500
        k(   11) = (   0.7500000  -0.5000000  -0.2500000), wk =   0.2500000
        k(   12) = (   0.0000000   0.5000000   0.0000000), wk =   0.0625000
        k(   13) = (   0.7500000  -0.2500000   0.0000000), wk =   0.0625000

     Dense  grid:    14171 G-vectors     FFT dimensions: (  36,  36,  36)

     Estimated max dynamical RAM per process >      21.40 MB
     Generating pointlists ...
     new r_m :   0.3572 (alat units)  1.9375 (a.u.) for type    1

     The potential is recalculated from file :
     ./Fe.save/charge-density

     Starting wfcs are random

     Band Structure Calculation
     Davidson diagonalization with overlap

     ethr =  1.25E-12,  avg # of iterations = 46.8

     total cpu time spent up to now is       22.5 secs

     End of band structure calculation

          k = 0.0000 0.0000 0.0000 (  1745 PWs)   bands (ev):

     4.4262   4.5671  10.5984  10.6259  10.6570  11.6427  11.6542  12.2136
    12.2313  12.2643  14.3990  14.4006  38.5332  38.5332  38.5333  38.8337
    38.8337  38.8338  44.3074  44.3677  44.4400  44.5746  44.5756  44.6290
    44.6294  45.3271  45.3933  45.4522  50.4155  50.4347  50.4548  50.7695

          k = 0.0000-0.2500 0.2500 (  1773 PWs)   bands (ev):

     6.6731   6.8938  10.0901  10.4385  11.5239  11.6270  11.7106  11.8490
    12.0066  13.5319  14.0375  14.4869  29.2807  29.8310  34.5135  34.6333
    37.0440  37.7355  39.0468  39.0636  40.7520  41.2474  43.9436  44.0770
    49.0872  49.1595  54.9047  55.0548  56.3437  56.8006  57.2580  57.3681

          k = 0.0000 0.5000-0.5000 (  1766 PWs)   bands (ev):

     8.0438   9.2524   9.5906  11.0405  11.7761  11.8429  13.2701  13.3296
    13.3349  14.2000  14.6455  15.1689  20.3823  21.5435  31.3756  31.4561
    32.6203  33.1431  39.2169  39.3992  41.0370  41.6060  48.5287  48.5921
    52.8922  53.3397  53.4639  53.4885  62.2210  62.8651  65.7266  65.7458

          k =-0.2500 0.7500-0.5000 (  1774 PWs)   bands (ev):

     8.8919   9.5602   9.8370  10.2074  11.1017  11.4637  11.6956  12.1038
    14.0467  14.6038  15.2221  16.6166  24.3687  24.7604  25.0775  25.4166
    32.6039  33.0300  40.8615  40.8718  44.2163  44.3721  50.5602  50.7424
    52.1753  52.7320  53.0321  53.2608  58.3424  58.3907  63.2197  63.3153

          k = 0.0000 0.0000 0.5000 (  1773 PWs)   bands (ev):

     8.1793   8.7575   9.8186  11.0338  11.0970  11.8062  12.0963  12.5698
    12.6483  12.9730  13.5071  15.2849  30.3222  30.4669  30.8353  30.9797
    32.1074  32.3708  32.5617  32.8937  47.2494  47.2801  47.3929  47.4301
    49.8765  50.3377  51.5755  51.8076  53.1660  53.6045  62.5188  62.7127

          k = 0.0000 0.7500-0.2500 (  1780 PWs)   bands (ev):

     8.6593   9.1393  10.3951  10.9131  11.0124  11.5858  12.5552  13.1899
    13.3569  15.0127  17.9706  18.8824  20.8074  21.7217  26.7181  27.1511
    30.9851  31.5976  37.3408  37.5604  39.7594  40.5465  47.5654  47.7644
    48.4874  48.8413  60.9167  61.1382  65.3991  65.6497  65.7714  65.8097

          k = 0.5000-0.5000 0.5000 (  1772 PWs)   bands (ev):

     9.6996   9.7102   9.7202  10.8861  10.8929  10.8966  11.8810  11.8814
    14.6921  14.6932  21.7725  21.8047  21.8400  22.4737  22.4996  22.5229
    23.1565  23.8693  52.2260  52.2261  52.2261  52.5240  52.5240  52.5241
    54.5058  54.5069  54.5092  54.5749  54.5755  54.5755  64.3840  64.4307

          k = 0.0000 0.0000-1.0000 (  1830 PWs)   bands (ev):

     8.0604   8.0609   9.9766   9.9776  13.0117  13.0475  13.0817  14.8250
    14.8614  14.8971  22.4638  22.5198  22.6744  22.7930  22.8489  22.8913
    30.3853  30.3860  31.2418  31.2422  31.9781  33.0881  55.5332  55.5876
    61.3971  61.4164  61.4382  61.7993  61.8173  61.8334  65.9441  65.9515

          k =-0.2500 0.2500 0.0000 (  1773 PWs)   bands (ev):

     6.6730   6.8938  10.0901  10.4388  11.5030  11.6454  11.7364  11.8272
    12.0041  13.5344  14.0339  14.4887  29.2809  29.8311  34.5142  34.6329
    37.0433  37.7356  39.0468  39.0636  40.7520  41.2471  43.9435  44.0772
    49.0874  49.1595  54.9045  55.0549  56.3444  56.8004  57.2575  57.3682

          k = 0.5000-0.5000 0.0000 (  1766 PWs)   bands (ev):

     8.0438   9.2523   9.5903  11.0387  11.7625  11.8604  13.2704  13.3269
    13.3348  14.1970  14.6503  15.1678  20.3828  21.5435  31.3766  31.4553
    32.6198  33.1433  39.2168  39.3993  41.0365  41.6058  48.5285  48.5925
    52.8916  53.3396  53.4644  53.4888  62.2212  62.8650  65.7266  65.7460

          k = 0.7500-0.5000-0.2500 (  1774 PWs)   bands (ev):

     8.8918   9.5609   9.8370  10.2067  11.1018  11.4585  11.7001  12.1047
    14.0451  14.6057  15.2215  16.6169  24.3688  24.7596  25.0784  25.4163
    32.6040  33.0300  40.8613  40.8718  44.2167  44.3719  50.5604  50.7422
    52.1751  52.7322  53.0318  53.2610  58.3421  58.3909  63.2199  63.3153

          k = 0.0000 0.5000 0.0000 (  1773 PWs)   bands (ev):

     8.1791   8.7576   9.8185  11.0638  11.0669  11.7943  12.1065  12.6073
    12.6159  12.9691  13.5070  15.2859  30.3843  30.3845  30.9177  30.9177
    32.1069  32.3716  32.5615  32.8933  47.2627  47.2632  47.4131  47.4134
    49.8764  50.3380  51.5751  51.8078  53.1657  53.6045  62.5190  62.7122

          k = 0.7500-0.2500 0.0000 (  1780 PWs)   bands (ev):

     8.6589   9.1398  10.3939  10.9141  11.0140  11.5827  12.5594  13.1881
    13.3554  15.0130  17.9709  18.8828  20.8079  21.7216  26.7177  27.1513
    30.9851  31.5971  37.3412  37.5604  39.7591  40.5468  47.5652  47.7645
    48.4874  48.8412  60.9165  61.1382  65.3993  65.6496  65.7713  65.8099

     the Fermi energy is    13.0255 ev
     (compare with:    13.0255 eV, computed in scf)

     Writing all to output data dir ./Fe.save/ :
     XML data file, pseudopotentials, collected wavefunctions

     init_run     :      0.25s CPU      0.26s WALL (       1 calls)
     electrons    :    698.93s CPU     22.16s WALL (       1 calls)

     Called by init_run:
     wfcinit      :      0.00s CPU      0.00s WALL (       1 calls)
     potinit      :      0.02s CPU      0.03s WALL (       1 calls)
     hinit0       :      0.22s CPU      0.23s WALL (       1 calls)

     Called by electrons:
     c_bands      :    698.93s CPU     22.16s WALL (       1 calls)
     v_of_rho     :      0.02s CPU      0.03s WALL (       1 calls)

     Called by c_bands:
     init_us_2    :      0.06s CPU      0.01s WALL (      13 calls)
     cegterg      :    671.43s CPU     21.14s WALL (      35 calls)

     Called by *egterg:
     cdiaghg      :     33.52s CPU      1.04s WALL (     621 calls)
     h_psi        :    580.69s CPU     18.38s WALL (     656 calls)
     g_psi        :     12.70s CPU      0.42s WALL (     608 calls)

     Called by h_psi:
     h_psi:calbec :      3.63s CPU      0.10s WALL (     656 calls)
     vloc_psi     :    562.95s CPU     17.83s WALL (     656 calls)
     add_vuspsi   :      9.66s CPU      0.30s WALL (     656 calls)

     General routines
     calbec       :      3.59s CPU      0.10s WALL (     656 calls)
     fft          :      0.16s CPU      0.16s WALL (      23 calls)
     fftw         :    350.40s CPU     11.15s WALL (   43452 calls)
     davcio       :      0.77s CPU      0.02s WALL (      26 calls)

     Parallel routines

     PWSCF        :  11m40.48s CPU     22.51s WALL


   This run was terminated on:  18: 3:10  21Jun2025            

=------------------------------------------------------------------------------=
   JOB DONE.
=------------------------------------------------------------------------------=
