
  ___ ___ ___ _ _ _  
 |   |   |_  | | | | 
 | | | | | . | | | | 
 |__ |  _|___|_____|  25.1.0
 |___|_|             

User:   stepan@C3MP-C019202L
Date:   Tue Sep 30 18:22:12 2025
Arch:   x86_64
Pid:    122839
CWD:    /home/stepan/github/wannier-berri-work/wannier-berri-soc-nscf/tests/data/Fe_gpaw
Python: 3.12.11
gpaw:   /home/stepan/github/wannier-berri-work/wannier-berri-soc-nscf/.conda/lib/python3.12/site-packages/gpaw
_gpaw:  /home/stepan/github/wannier-berri-work/wannier-berri-soc-nscf/.conda/lib/python3.12/site-packages/
        _gpaw.cpython-312-x86_64-linux-gnu.so
ase:    /home/stepan/github/wannier-berri-work/wannier-berri-soc-nscf/.conda/lib/python3.12/site-packages/ase (version 3.25.0)
numpy:  /home/stepan/github/wannier-berri-work/wannier-berri-soc-nscf/.conda/lib/python3.12/site-packages/numpy (version 2.2.6)
scipy:  /home/stepan/github/wannier-berri-work/wannier-berri-soc-nscf/.conda/lib/python3.12/site-packages/scipy (version 1.16.0)
libxc:  5.2.3
units:  Angstrom and eV
cores: 1
OpenMP: False
OMP_NUM_THREADS: 1

Input parameters:
  convergence: {bands: 26}
  gpts: [12 12 12]
  kpts: {gamma: True,
         size: (2, 2, 2)}
  mode: {ecut: 400.0,
         name: pw}
  nbands: 30
  symmetry: off

Initialize ...

species:
  Fe:
    name: Iron
    id: f2f69ec1ec8113f5f2b13e9fc929b23f
    Z: 26.0
    valence: 8
    core: 18
    charge: 0.0
    file: /home/stepan/gpaw-data/gpaw-setups-24.11.0/Fe.LDA.gz
    compensation charges: {type: gauss,
                           rc: 0.33,
                           lmax: 2}
    cutoffs: {filter: 2.06,
              core: 2.67}
    projectors:
      #              energy  rcut
      - 4s(2.00)    -5.481   1.164
      - 4p(0.00)    -1.431   1.058
      - 3d(6.00)    -7.753   1.058
      -  s          21.730   1.164
      -  p          25.780   1.058
      -  d          19.459   1.058
  
    # Using partial waves for Fe as LCAO basis

Reference energy: -34557.939371  # eV

Spin-polarized calculation.
Magnetic moment: 2.200000

Convergence criteria:
 Maximum [total energy] change in last 3 cyles: 0.0005 eV / valence electron
 Maximum integral of absolute [dens]ity change: 0.0001 electrons / valence electron
 Maximum integral of absolute [eigenst]ate change: 4e-08 eV^2 / valence electron
 Maximum number of scf [iter]ations: 333
 (Square brackets indicate name in SCF output, whereas a 'c' in
 the SCF output indicates the quantity has converged.)

Symmetries present (total): 1

  ( 1  0  0)
  ( 0  1  0)
  ( 0  0  1)

8 k-points: 2 x 2 x 2 Monkhorst-Pack grid + [1/4,1/4,1/4]
8 k-points in the irreducible part of the Brillouin zone
       k-points in crystal coordinates                weights
   0:     0.00000000    0.00000000    0.00000000          1/8
   1:     0.00000000    0.00000000    0.50000000          1/8
   2:     0.00000000    0.50000000    0.00000000          1/8
   3:     0.00000000    0.50000000    0.50000000          1/8
   4:     0.50000000    0.00000000    0.00000000          1/8
   5:     0.50000000    0.00000000    0.50000000          1/8
   6:     0.50000000    0.50000000    0.00000000          1/8
   7:     0.50000000    0.50000000    0.50000000          1/8

Wave functions: Plane wave expansion
  Cutoff energy: 400.000 eV
  Number of coefficients (min, max): 201, 236
  Pulay-stress correction: 0.000000 eV/Ang^3 (de/decut=0.000000)
  Using Numpy's FFT
  ScaLapack parameters: grid=1x1, blocksize=None
  Wavefunction extrapolation:
    Improved wavefunction reuse through dual PAW basis 

Occupation numbers: Fermi-Dirac:
  width: 0.1000  # eV
 

Eigensolver
   Davidson(niter=2) 

Densities:
  Coarse grid: 12*12*12 grid
  Fine grid: 24*24*24 grid
  Total Charge: 0.000000 

Density mixing:
  Method: difference
  Backend: pulay
  Linear mixing parameter: 0.05
  old densities: 5
  Damping of long wavelength oscillations: 50 

Hamiltonian:
  XC and Coulomb potentials evaluated on a 24*24*24 grid
  Using the LDA Exchange-Correlation functional
  External potential:
    NoExternalPotential
 

Memory estimate:
  Process memory now: 149.09 MiB
  Calculator: 3.64 MiB
    Density: 0.87 MiB
      Arrays: 0.46 MiB
      Localized functions: 0.23 MiB
      Mixer: 0.18 MiB
    Hamiltonian: 0.35 MiB
      Arrays: 0.34 MiB
      XC: 0.00 MiB
      Poisson: 0.00 MiB
      vbar: 0.00 MiB
    Wavefunctions: 2.42 MiB
      Arrays psit_nG: 1.73 MiB
      Eigensolver: 0.26 MiB
      Projections: 0.13 MiB
      Projectors: 0.20 MiB
      PW-descriptor: 0.09 MiB

Total number of cores used: 1

Number of atoms: 1
Number of atomic orbitals: 9
Number of bands in calculation: 30
Number of valence electrons: 8
Bands to converge: 26

... initialized

Initializing position-dependent things.

Creating initial wave functions:
  9 bands from LCAO basis set
  21 bands from random numbers

                
                
                
       Fe       
                
                
                
                

Positions:
   0 Fe     0.000000    0.000000    0.000000    ( 0.0000,  0.0000,  2.2000)

Unit cell:
           periodic     x           y           z      points  spacing
  1. axis:    yes    1.435000    1.435000    1.435000    12     0.1691
  2. axis:    yes   -1.435000    1.435000    1.435000    12     0.1691
  3. axis:    yes   -1.435000   -1.435000    1.435000    12     0.1691

  Lengths:   2.485493   2.485493   2.485493
  Angles:   70.528779 109.471221  70.528779

Effective grid spacing dv^(1/3) = 0.1898

     iter     time        total  log10-change:  magmom
                         energy   eigst   dens
iter:   1 18:22:13   -23.586425   +3.64       c   +2.1051
iter:   2 18:22:13   -23.586931   +1.66       c   +2.1051
iter:   3 18:22:13   -23.586934c  +0.96       c   +2.1051
iter:   4 18:22:13   -23.586934c  -0.08       c   +2.1051
iter:   5 18:22:13   -23.586934c  -0.66       c   +2.1051
iter:   6 18:22:14   -23.586934c  -1.13       c   +2.1051
iter:   7 18:22:14   -23.586934c  -1.57       c   +2.1051
iter:   8 18:22:14   -23.586934c  -2.03       c   +2.1051
iter:   9 18:22:14   -23.586934c  -2.40       c   +2.1051
iter:  10 18:22:14   -23.586934c  -2.85       c   +2.1051
iter:  11 18:22:15   -23.586934c  -3.22       c   +2.1051
iter:  12 18:22:15   -23.586934c  -3.62       c   +2.1051
iter:  13 18:22:15   -23.586934c  -3.96       c   +2.1051
iter:  14 18:22:15   -23.586934c  -4.21       c   +2.1051
iter:  15 18:22:15   -23.586934c  -4.43       c   +2.1051
iter:  16 18:22:16   -23.586934c  -4.72       c   +2.1051
iter:  17 18:22:16   -23.586934c  -5.03       c   +2.1051
iter:  18 18:22:16   -23.586934c  -5.45       c   +2.1051
iter:  19 18:22:16   -23.586934c  -5.85       c   +2.1051
iter:  20 18:22:16   -23.586934c  -6.20       c   +2.1051
iter:  21 18:22:17   -23.586934c  -6.55       c   +2.1051
iter:  22 18:22:17   -23.586934c  -6.99       c   +2.1051
iter:  23 18:22:17   -23.586934c  -7.38       c   +2.1051
iter:  24 18:22:17   -23.586934c  -7.69c      c   +2.1051

Converged after 24 iterations.

Dipole moment: (-0.000000, 0.000000, 0.000000) |e|*Ang

Total magnetic moment: (0.000000, 0.000000, 2.105128)
Local magnetic moments:
   0 Fe ( 0.000000,  0.000000,  2.131632)

Energy contributions relative to reference atoms: (reference = -34557.939371)

Kinetic:         -9.846964
Potential:       -3.316613
External:        +0.000000
XC:             -10.576584
Entropy (-ST):   -0.048536
Local:           +0.177495
SIC:             +0.000000
--------------------------
Free energy:    -23.611202
Extrapolated:   -23.586934

Spin contamination: 0.052300 electrons
Showing only first 2 kpts
                      Up                     Down
 Kpt  Band  Eigenvalues  Occupancy  Eigenvalues  Occupancy
  0     2      7.02107    1.00000      8.87926    0.97164
  0     3      7.02108    1.00000      8.87926    0.97164
  0     4      8.30561    0.99991     10.56098    0.00000
  0     5      8.30561    0.99991     10.56098    0.00000

  1     2      8.32794    0.99988      9.81529    0.00294
  1     3      8.49001    0.99941     10.50499    0.00000
  1     4      9.55095    0.03981     10.80239    0.00000
  1     5      9.61048    0.02235     11.77321    0.00000


Fermi level: 9.23265

No gap
No difference between direct/indirect transitions
Writing to Fe-nscf.gpw (mode='all')

Timing:                              incl.     excl.
-----------------------------------------------------------
Hamiltonian:                         0.014     0.000   0.0% |
 Atomic:                             0.011     0.000   0.0% |
  XC Correction:                     0.011     0.011   0.2% |
 Calculate atomic Hamiltonians:      0.000     0.000   0.0% |
 Communicate:                        0.000     0.000   0.0% |
 Initialize Hamiltonian:             0.000     0.000   0.0% |
 Poisson:                            0.000     0.000   0.0% |
 XC 3D grid:                         0.002     0.002   0.0% |
LCAO initialization:                 0.335     0.017   0.3% |
 LCAO eigensolver:                   0.228     0.000   0.0% |
  Calculate projections:             0.000     0.000   0.0% |
  DenseAtomicCorrection:             0.001     0.001   0.0% |
  Distribute overlap matrix:         0.000     0.000   0.0% |
  Orbital Layouts:                   0.001     0.001   0.0% |
  Potential matrix:                  0.217     0.217   3.7% ||
  Sum over cells:                    0.009     0.009   0.1% |
 LCAO to grid:                       0.059     0.059   1.0% |
 Set positions (LCAO WFS):           0.031     0.005   0.1% |
  Basic WFS set positions:           0.000     0.000   0.0% |
  Basis functions set positions:     0.000     0.000   0.0% |
  P tci:                             0.006     0.006   0.1% |
  ST tci:                            0.013     0.013   0.2% |
  mktci:                             0.007     0.007   0.1% |
PWDescriptor:                        0.000     0.000   0.0% |
SCF-cycle:                           4.945     0.011   0.2% |
 Davidson:                           4.929     0.375   6.4% |--|
  Apply H:                           0.928     0.900  15.4% |-----|
   HMM T:                            0.028     0.028   0.5% |
  Subspace diag:                     1.094     0.011   0.2% |
   calc_h_matrix:                    0.978     0.040   0.7% |
    Apply H:                         0.938     0.908  15.6% |-----|
     HMM T:                          0.029     0.029   0.5% |
   diagonalize:                      0.072     0.072   1.2% |
   rotate_psi:                       0.033     0.033   0.6% |
  calc. matrices:                    2.053     0.213   3.6% ||
   Apply H:                          1.840     1.785  30.6% |-----------|
    HMM T:                           0.055     0.055   0.9% |
  diagonalize:                       0.418     0.418   7.2% |--|
  rotate_psi:                        0.061     0.061   1.0% |
 Orthonormalize:                     0.005     0.001   0.0% |
  calc_s_matrix:                     0.001     0.001   0.0% |
  inverse-cholesky:                  0.001     0.001   0.0% |
  projections:                       0.001     0.001   0.0% |
  rotate_psi_s:                      0.001     0.001   0.0% |
Set symmetry:                        0.000     0.000   0.0% |
Other:                               0.534     0.534   9.2% |---|
-----------------------------------------------------------
Total:                                         5.829 100.0%

Memory usage: 155.86 MiB
Date: Tue Sep 30 18:22:18 2025
